#PolymerMelt 06/2021

     12000    atoms
     11800    bonds
         0    angles
         0    dihedrals
         0    impropers

         1    atom types
         1    bond types

     -12.08437270      12.08437270   xlo xhi
     -12.08437270      12.08437270   ylo yhi
     -12.08437270      12.08437270   zlo zhi

Atoms

     1      1  1   0.00    7.0755   16.7935   16.7681      0      0      0
     2      1  1   0.00    7.4012   17.5074    0.0000      0      0      0
     3      1  1   0.00    7.8405   17.8146    0.0000      0      0      0
     4      1  1   0.00    7.8772   16.9971    0.0000      0      0      0
     5      1  1   0.00    7.3344   16.9449    0.0000      0      0      0
     6      1  1   0.00    6.6754   16.5705    0.0000      0      0      0
     7      1  1   0.00    5.9781   16.6749    0.0000      0      0      0
     8      1  1   0.00    6.3107   16.2743    0.0000      0      0      0
     9      1  1   0.00    6.5110   17.1780    0.0000      0      0      0
    10      1  1   0.00    7.3303   16.6911    0.0000      0      0      0
    11      1  1   0.00    6.6457   17.3691    0.0000      0      0      0
    12      1  1   0.00    6.0225   17.9613    0.0000      0      0      0
    13      1  1   0.00    6.6575   18.4525    0.0000      0      0      0
    14      1  1   0.00    7.3936   18.5733    0.0000      0      0      0
    15      1  1   0.00    7.4300   19.1370    0.0000      0      0      0
    16      1  1   0.00    8.0524   19.3041    0.0000      0      0      0
    17      1  1   0.00    8.0846   18.3533    0.0000      0      0      0
    18      1  1   0.00    8.8212   17.7870    0.0000      0      0      0
    19      1  1   0.00    8.4002   18.5909    0.0000      0      0      0
    20      1  1   0.00    7.8735   18.6293    0.0000      0      0      0
    21      1  1   0.00    7.5561   17.7457    0.0000      0      0      0
    22      1  1   0.00    7.0378   18.3887    0.0000      0      0      0
    23      1  1   0.00    7.7931   18.4809    0.0000      0      0      0
    24      1  1   0.00    6.8908   18.6979    0.0000      0      0      0
    25      1  1   0.00    7.6843   19.2304    0.0000      0      0      0
    26      1  1   0.00    6.8010   19.5928    0.0000      0      0      0
    27      1  1   0.00    6.5207   20.0094    0.0000      0      0      0
    28      1  1   0.00    6.3850   20.9683    0.0000      0      0      0
    29      1  1   0.00    6.9785   21.3068    0.0000      0      0      0
    30      1  1   0.00    6.2816   21.7573    0.0000      0      0      0
    31      1  1   0.00    7.0832   22.2148    0.0000      0      0      0
    32      1  1   0.00    7.7190   21.9104    0.0000      0      0      0
    33      1  1   0.00    8.2383   21.0913    0.0000      0      0      0
    34      1  1   0.00    7.6935   21.7849    0.0000      0      0      0
    35      1  1   0.00    7.8069   22.4267    0.0000      0      0      0
    36      1  1   0.00    7.2527   23.1778    0.0000      0      0      0
    37      1  1   0.00    6.9067   23.5539    0.0000      0      0      0
    38      1  1   0.00    6.2052   23.4180    0.0000      0      0      0
    39      1  1   0.00    6.4159   24.0970    0.0000      0      0      0
    40      1  1   0.00    5.7237   23.4680    0.0000      0      0      0
    41      1  1   0.00    6.2753   23.4085    0.0000      0      0      0
    42      1  1   0.00    5.6012   24.0405    0.0000      0      0      0
    43      1  1   0.00    5.4160   24.5163    0.0000      0      0      0
    44      1  1   0.00    4.8375   24.7440    0.0000      0      0      0
    45      1  1   0.00    4.9171   25.6878    0.0000      0      0      0
    46      1  1   0.00    4.0022   25.8771    0.0000      0      0      0
    47      1  1   0.00    3.2879   26.1697    0.0000      0      0      0
    48      1  1   0.00    3.7890   25.3775    0.0000      0      0      0
    49      1  1   0.00    3.5270   24.5160    0.0000      0      0      0
    50      1  1   0.00    3.2004   24.3047    0.0000      0      0      0
    51      1  1   0.00    2.6398   24.9675    0.0000      0      0      0
    52      1  1   0.00    2.1353   25.6818    0.0000      0      0      0
    53      1  1   0.00    1.7801   25.6214    0.0000      0      0      0
    54      1  1   0.00    2.0340   24.6903    0.0000      0      0      0
    55      1  1   0.00    2.3071   24.3029    0.0000      0      0      0
    56      1  1   0.00    1.9747   23.7596    0.0000      0      0      0
    57      1  1   0.00    2.7323   23.2292    0.0000      0      0      0
    58      1  1   0.00    2.3480   22.6555    0.0000      0      0      0
    59      1  1   0.00    2.9241   22.4325    0.0000      0      0      0
    60      1  1   0.00    2.0606   22.6831    0.0000      0      0      0
    61      2  1   0.00    4.8831   20.1288   19.7572      0      0      0
    62      2  1   0.00    4.1863   20.8026    0.0000      0      0      0
    63      2  1   0.00    4.3850   21.4438    0.0000      0      0      0
    64      2  1   0.00    3.7854   21.8083    0.0000      0      0      0
    65      2  1   0.00    3.2306   22.5160    0.0000      0      0      0
    66      2  1   0.00    3.1775   21.7190    0.0000      0      0      0
    67      2  1   0.00    2.5250   22.4226    0.0000      0      0      0
    68      2  1   0.00    1.9039   21.8787    0.0000      0      0      0
    69      2  1   0.00    2.0691   21.7474    0.0000      0      0      0
    70      2  1   0.00    2.6197   22.4567    0.0000      0      0      0
    71      2  1   0.00    1.9380   21.9995    0.0000      0      0      0
    72      2  1   0.00    1.9956   22.6248    0.0000      0      0      0
    73      2  1   0.00    1.4784   21.8292    0.0000      0      0      0
    74      2  1   0.00    2.1387   21.2406    0.0000      0      0      0
    75      2  1   0.00    1.5016   21.5414    0.0000      0      0      0
    76      2  1   0.00    1.7337   22.0109    0.0000      0      0      0
    77      2  1   0.00    0.7835   22.1718    0.0000      0      0      0
    78      2  1   0.00    0.2205   22.9591    0.0000      0      0      0
    79      2  1   0.00   -0.3471   22.9404    0.0000      0      0      0
    80      2  1   0.00    0.1601   22.2863    0.0000      0      0      0
    81      2  1   0.00    0.8844   22.6260    0.0000      0      0      0
    82      2  1   0.00    1.3993   22.0401    0.0000      0      0      0
    83      2  1   0.00    0.9779   22.4202    0.0000      0      0      0
    84      2  1   0.00    1.5444   21.6642    0.0000      0      0      0
    85      2  1   0.00    1.7352   20.9436    0.0000      0      0      0
    86      2  1   0.00    1.2612   21.6319    0.0000      0      0      0
    87      2  1   0.00    0.7534   22.0515    0.0000      0      0      0
    88      2  1   0.00    1.1935   22.6654    0.0000      0      0      0
    89      2  1   0.00    0.6395   23.4363    0.0000      0      0      0
    90      2  1   0.00    1.3255   23.6422    0.0000      0      0      0
    91      2  1   0.00    0.5416   24.0982    0.0000      0      0      0
    92      2  1   0.00   -0.3014   24.3252    0.0000      0      0      0
    93      2  1   0.00    0.0738   23.7568    0.0000      0      0      0
    94      2  1   0.00    0.7027   23.3651    0.0000      0      0      0
    95      2  1   0.00    1.2524   24.0518    0.0000      0      0      0
    96      2  1   0.00    0.9545   23.4897    0.0000      0      0      0
    97      2  1   0.00    0.3759   23.6625    0.0000      0      0      0
    98      2  1   0.00   -0.1831   23.4394    0.0000      0      0      0
    99      2  1   0.00   -0.0242   24.3680    0.0000      0      0      0
   100      2  1   0.00   -0.5158   24.4193    0.0000      0      0      0
   101      2  1   0.00   -0.9248   23.7682    0.0000      0      0      0
   102      2  1   0.00   -1.0451   24.3845    0.0000      0      0      0
   103      2  1   0.00   -1.6746   23.8196    0.0000      0      0      0
   104      2  1   0.00   -2.4480   24.1027    0.0000      0      0      0
   105      2  1   0.00   -2.8279   23.6062    0.0000      0      0      0
   106      2  1   0.00   -2.4289   24.3600    0.0000      0      0      0
   107      2  1   0.00   -2.4334   25.0658    0.0000      0      0      0
   108      2  1   0.00   -2.0238   25.6121    0.0000      0      0      0
   109      2  1   0.00   -1.9920   25.0125    0.0000      0      0      0
   110      2  1   0.00   -1.4183   24.2644    0.0000      0      0      0
   111      2  1   0.00   -1.8294   25.0685    0.0000      0      0      0
   112      2  1   0.00   -2.0006   25.8264    0.0000      0      0      0
   113      2  1   0.00   -2.7482   25.2323    0.0000      0      0      0
   114      2  1   0.00   -3.5874   25.6730    0.0000      0      0      0
   115      2  1   0.00   -3.0775   26.2441    0.0000      0      0      0
   116      2  1   0.00   -2.5186   25.7427    0.0000      0      0      0
   117      2  1   0.00   -2.4682   25.1415    0.0000      0      0      0
   118      2  1   0.00   -3.2017   25.7490    0.0000      0      0      0
   119      2  1   0.00   -3.8362   26.4534    0.0000      0      0      0
   120      2  1   0.00   -4.5916   26.0193    0.0000      0      0      0
   121      3  1   0.00   14.9880   16.2680   19.9294      0      0      0
   122      3  1   0.00   15.0241   15.4035    0.0000      0      0      0
   123      3  1   0.00   14.0938   15.1784    0.0000      0      0      0
   124      3  1   0.00   14.7014   15.6079    0.0000      0      0      0
   125      3  1   0.00   15.4727   15.3756    0.0000      0      0      0
   126      3  1   0.00   14.8145   15.9106    0.0000      0      0      0
   127      3  1   0.00   15.2786   15.2066    0.0000      0      0      0
   128      3  1   0.00   15.9786   15.5476    0.0000      0      0      0
   129      3  1   0.00   15.4876   16.1776    0.0000      0      0      0
   130      3  1   0.00   15.3904   15.8770    0.0000      0      0      0
   131      3  1   0.00   15.1035   15.3433    0.0000      0      0      0
   132      3  1   0.00   14.8352   16.1852    0.0000      0      0      0
   133      3  1   0.00   14.4397   16.5721    0.0000      0      0      0
   134      3  1   0.00   15.3926   16.7335    0.0000      0      0      0
   135      3  1   0.00   15.3155   15.9272    0.0000      0      0      0
   136      3  1   0.00   14.9381   16.4680    0.0000      0      0      0
   137      3  1   0.00   14.1709   16.5185    0.0000      0      0      0
   138      3  1   0.00   13.7450   17.1101    0.0000      0      0      0
   139      3  1   0.00   14.2281   17.7833    0.0000      0      0      0
   140      3  1   0.00   14.6227   17.1029    0.0000      0      0      0
   141      3  1   0.00   15.2855   16.4095    0.0000      0      0      0
   142      3  1   0.00   15.0120   15.7462    0.0000      0      0      0
   143      3  1   0.00   15.1174   16.4668    0.0000      0      0      0
   144      3  1   0.00   16.0042   16.4480    0.0000      0      0      0
   145      3  1   0.00   15.2251   16.9685    0.0000      0      0      0
   146      3  1   0.00   14.6639   17.5335    0.0000      0      0      0
   147      3  1   0.00   14.6344   18.1772    0.0000      0      0      0
   148      3  1   0.00   15.4141   18.7519    0.0000      0      0      0
   149      3  1   0.00   15.6031   18.5835    0.0000      0      0      0
   150      3  1   0.00   16.2071   18.1047    0.0000      0      0      0
   151      3  1   0.00   15.4995   18.7440    0.0000      0      0      0
   152      3  1   0.00   15.9856   19.5346    0.0000      0      0      0
   153      3  1   0.00   15.6484   18.6681    0.0000      0      0      0
   154      3  1   0.00   15.0967   19.4535    0.0000      0      0      0
   155      3  1   0.00   15.3682   18.6058    0.0000      0      0      0
   156      3  1   0.00   15.1127   18.8833    0.0000      0      0      0
   157      3  1   0.00   15.1855   19.7425    0.0000      0      0      0
   158      3  1   0.00   15.8478   20.1592    0.0000      0      0      0
   159      3  1   0.00   16.5118   19.5691    0.0000      0      0      0
   160      3  1   0.00   17.2760   19.0299    0.0000      0      0      0
   161      3  1   0.00   17.8127   18.4066    0.0000      0      0      0
   162      3  1   0.00   17.8732   18.1923    0.0000      0      0      0
   163      3  1   0.00   17.2385   17.7260    0.0000      0      0      0
   164      3  1   0.00   17.2601   18.5101    0.0000      0      0      0
   165      3  1   0.00   16.6314   19.1587    0.0000      0      0      0
   166      3  1   0.00   16.9197   19.9251    0.0000      0      0      0
   167      3  1   0.00   16.1591   20.0177    0.0000      0      0      0
   168      3  1   0.00   17.0525   19.9856    0.0000      0      0      0
   169      3  1   0.00   16.3737   19.7809    0.0000      0      0      0
   170      3  1   0.00   15.6411   20.3266    0.0000      0      0      0
   171      3  1   0.00   14.9276   19.6748    0.0000      0      0      0
   172      3  1   0.00   14.8759   20.6420    0.0000      0      0      0
   173      3  1   0.00   15.4324   20.9873    0.0000      0      0      0
   174      3  1   0.00   16.2922   21.1525    0.0000      0      0      0
   175      3  1   0.00   16.8110   20.7949    0.0000      0      0      0
   176      3  1   0.00   16.7453   20.4561    0.0000      0      0      0
   177      3  1   0.00   16.4833   21.2839    0.0000      0      0      0
   178      3  1   0.00   16.9104   22.0074    0.0000      0      0      0
   179      3  1   0.00   16.2974   22.6522    0.0000      0      0      0
   180      3  1   0.00   15.3509   22.8214    0.0000      0      0      0
   181      4  1   0.00    9.0108   11.8787   22.7013      0      0      0
   182      4  1   0.00    8.3749   12.6084    0.0000      0      0      0
   183      4  1   0.00    8.7955   13.4086    0.0000      0      0      0
   184      4  1   0.00    9.7300   13.4712    0.0000      0      0      0
   185      4  1   0.00   10.1883   12.7256    0.0000      0      0      0
   186      4  1   0.00    9.5432   12.1011    0.0000      0      0      0
   187      4  1   0.00    8.8657   11.7685    0.0000      0      0      0
   188      4  1   0.00    8.5547   12.4489    0.0000      0      0      0
   189      4  1   0.00    8.1457   12.4488    0.0000      0      0      0
   190      4  1   0.00    7.5309   12.6386    0.0000      0      0      0
   191      4  1   0.00    7.3174   12.6950    0.0000      0      0      0
   192      4  1   0.00    6.6485   13.3517    0.0000      0      0      0
   193      4  1   0.00    6.9259   13.7699    0.0000      0      0      0
   194      4  1   0.00    7.4614   13.0462    0.0000      0      0      0
   195      4  1   0.00    7.9738   12.4422    0.0000      0      0      0
   196      4  1   0.00    8.0778   13.1664    0.0000      0      0      0
   197      4  1   0.00    8.0370   14.0903    0.0000      0      0      0
   198      4  1   0.00    7.9047   13.5263    0.0000      0      0      0
   199      4  1   0.00    8.4388   13.4515    0.0000      0      0      0
   200      4  1   0.00    8.7396   14.3271    0.0000      0      0      0
   201      4  1   0.00    8.0806   14.2918    0.0000      0      0      0
   202      4  1   0.00    8.6122   13.5479    0.0000      0      0      0
   203      4  1   0.00    8.2830   13.3019    0.0000      0      0      0
   204      4  1   0.00    9.0170   12.7292    0.0000      0      0      0
   205      4  1   0.00    8.9882   11.7887    0.0000      0      0      0
   206      4  1   0.00    9.5491   11.1159    0.0000      0      0      0
   207      4  1   0.00    9.1884   11.7475    0.0000      0      0      0
   208      4  1   0.00    9.5348   12.2096    0.0000      0      0      0
   209      4  1   0.00    9.9364   12.8222    0.0000      0      0      0
   210      4  1   0.00   10.3257   13.4147    0.0000      0      0      0
   211      4  1   0.00    9.6538   13.8334    0.0000      0      0      0
   212      4  1   0.00    9.0594   14.0278    0.0000      0      0      0
   213      4  1   0.00    9.4553   14.6396    0.0000      0      0      0
   214      4  1   0.00    8.8044   13.9471    0.0000      0      0      0
   215      4  1   0.00    9.2240   13.1460    0.0000      0      0      0
   216      4  1   0.00    9.8801   12.9711    0.0000      0      0      0
   217      4  1   0.00    9.5747   13.0106    0.0000      0      0      0
   218      4  1   0.00    9.0780   13.4884    0.0000      0      0      0
   219      4  1   0.00    8.4005   14.0284    0.0000      0      0      0
   220      4  1   0.00    7.7658   13.4362    0.0000      0      0      0
   221      4  1   0.00    7.3355   12.5703    0.0000      0      0      0
   222      4  1   0.00    6.6708   12.0437    0.0000      0      0      0
   223      4  1   0.00    7.4064   12.5643    0.0000      0      0      0
   224      4  1   0.00    7.6585   13.2416    0.0000      0      0      0
   225      4  1   0.00    7.0974   12.4582    0.0000      0      0      0
   226      4  1   0.00    6.5790   12.6833    0.0000      0      0      0
   227      4  1   0.00    6.5641   13.3786    0.0000      0      0      0
   228      4  1   0.00    6.4655   12.6951    0.0000      0      0      0
   229      4  1   0.00    7.1141   12.0458    0.0000      0      0      0
   230      4  1   0.00    6.5564   11.5159    0.0000      0      0      0
   231      4  1   0.00    5.7652   11.0587    0.0000      0      0      0
   232      4  1   0.00    5.1499   10.4916    0.0000      0      0      0
   233      4  1   0.00    5.8247    9.8843    0.0000      0      0      0
   234      4  1   0.00    6.0783    8.9801    0.0000      0      0      0
   235      4  1   0.00    5.5574    9.3045    0.0000      0      0      0
   236      4  1   0.00    5.0961    8.8472    0.0000      0      0      0
   237      4  1   0.00    4.8315    9.6921    0.0000      0      0      0
   238      4  1   0.00    4.6603    9.9341    0.0000      0      0      0
   239      4  1   0.00    4.7645    9.1857    0.0000      0      0      0
   240      4  1   0.00    4.1520    9.7281    0.0000      0      0      0
   241      5  1   0.00    0.5959   11.9886   23.8678      0      0      0
   242      5  1   0.00   -0.1846   12.4556    0.0000      0      0      0
   243      5  1   0.00   -0.9777   12.5302    0.0000      0      0      0
   244      5  1   0.00   -1.6808   12.4342    0.0000      0      0      0
   245      5  1   0.00   -1.3459   12.0838    0.0000      0      0      0
   246      5  1   0.00   -1.9361   12.2483    0.0000      0      0      0
   247      5  1   0.00   -1.4833   12.4182    0.0000      0      0      0
   248      5  1   0.00   -0.9621   13.0409    0.0000      0      0      0
   249      5  1   0.00   -0.8683   13.7765    0.0000      0      0      0
   250      5  1   0.00   -0.3619   14.5403    0.0000      0      0      0
   251      5  1   0.00   -0.0833   14.0932    0.0000      0      0      0
   252      5  1   0.00    0.1662   13.4464    0.0000      0      0      0
   253      5  1   0.00   -0.4539   14.0837    0.0000      0      0      0
   254      5  1   0.00    0.1720   14.4215    0.0000      0      0      0
   255      5  1   0.00   -0.7005   14.7231    0.0000      0      0      0
   256      5  1   0.00   -0.9754   14.4590    0.0000      0      0      0
   257      5  1   0.00   -0.0347   14.6602    0.0000      0      0      0
   258      5  1   0.00    0.3241   15.4565    0.0000      0      0      0
   259      5  1   0.00   -0.5185   15.8623    0.0000      0      0      0
   260      5  1   0.00   -0.5288   14.9859    0.0000      0      0      0
   261      5  1   0.00   -0.6905   15.4448    0.0000      0      0      0
   262      5  1   0.00   -1.4073   14.8034    0.0000      0      0      0
   263      5  1   0.00   -2.0636   14.9839    0.0000      0      0      0
   264      5  1   0.00   -1.3955   14.5044    0.0000      0      0      0
   265      5  1   0.00   -1.3652   14.9451    0.0000      0      0      0
   266      5  1   0.00   -0.6360   14.8149    0.0000      0      0      0
   267      5  1   0.00   -0.1049   15.6265    0.0000      0      0      0
   268      5  1   0.00   -0.8230   16.2725    0.0000      0      0      0
   269      5  1   0.00   -1.3604   15.4684    0.0000      0      0      0
   270      5  1   0.00   -0.5667   15.7046    0.0000      0      0      0
   271      5  1   0.00   -0.7895   14.9930    0.0000      0      0      0
   272      5  1   0.00   -1.2740   14.5584    0.0000      0      0      0
   273      5  1   0.00   -1.3054   13.5889    0.0000      0      0      0
   274      5  1   0.00   -2.0310   13.9989    0.0000      0      0      0
   275      5  1   0.00   -2.4447   13.2217    0.0000      0      0      0
   276      5  1   0.00   -1.7883   12.5430    0.0000      0      0      0
   277      5  1   0.00   -1.8671   12.2152    0.0000      0      0      0
   278      5  1   0.00   -2.4443   12.0463    0.0000      0      0      0
   279      5  1   0.00   -2.3778   11.6716    0.0000      0      0      0
   280      5  1   0.00   -2.4741   12.1920    0.0000      0      0      0
   281      5  1   0.00   -3.1466   12.8703    0.0000      0      0      0
   282      5  1   0.00   -2.2774   12.8757    0.0000      0      0      0
   283      5  1   0.00   -1.7209   13.6696    0.0000      0      0      0
   284      5  1   0.00   -1.6610   13.8474    0.0000      0      0      0
   285      5  1   0.00   -0.8263   14.3056    0.0000      0      0      0
   286      5  1   0.00   -1.3012   15.0697    0.0000      0      0      0
   287      5  1   0.00   -0.9386   15.8228    0.0000      0      0      0
   288      5  1   0.00   -1.7425   15.2865    0.0000      0      0      0
   289      5  1   0.00   -1.6428   14.3232    0.0000      0      0      0
   290      5  1   0.00   -0.8689   14.7011    0.0000      0      0      0
   291      5  1   0.00   -0.9338   13.9209    0.0000      0      0      0
   292      5  1   0.00   -1.3736   14.5317    0.0000      0      0      0
   293      5  1   0.00   -1.1427   13.9604    0.0000      0      0      0
   294      5  1   0.00   -0.5990   14.1313    0.0000      0      0      0
   295      5  1   0.00   -0.7003   13.4765    0.0000      0      0      0
   296      5  1   0.00   -1.2508   14.2513    0.0000      0      0      0
   297      5  1   0.00   -0.6650   13.6943    0.0000      0      0      0
   298      5  1   0.00    0.1356   13.3899    0.0000      0      0      0
   299      5  1   0.00   -0.3945   12.7317    0.0000      0      0      0
   300      5  1   0.00   -0.6682   13.2169    0.0000      0      0      0
   301      6  1   0.00   20.2844   18.0375   17.4731      0      0      0
   302      6  1   0.00   20.7143   17.8455    0.0000      0      0      0
   303      6  1   0.00   19.7796   17.5876    0.0000      0      0      0
   304      6  1   0.00   20.3750   16.9538    0.0000      0      0      0
   305      6  1   0.00   19.7501   16.5463    0.0000      0      0      0
   306      6  1   0.00   20.1757   15.9766    0.0000      0      0      0
   307      6  1   0.00   19.7039   15.3839    0.0000      0      0      0
   308      6  1   0.00   18.9874   14.8314    0.0000      0      0      0
   309      6  1   0.00   19.7142   14.2167    0.0000      0      0      0
   310      6  1   0.00   20.5079   14.0866    0.0000      0      0      0
   311      6  1   0.00   21.1035   14.7608    0.0000      0      0      0
   312      6  1   0.00   20.6182   14.9325    0.0000      0      0      0
   313      6  1   0.00   21.3085   15.1069    0.0000      0      0      0
   314      6  1   0.00   20.8583   15.8178    0.0000      0      0      0
   315      6  1   0.00   21.1981   15.8142    0.0000      0      0      0
   316      6  1   0.00   22.0591   15.5432    0.0000      0      0      0
   317      6  1   0.00   21.7208   16.4357    0.0000      0      0      0
   318      6  1   0.00   21.3502   15.5859    0.0000      0      0      0
   319      6  1   0.00   21.3015   15.7412    0.0000      0      0      0
   320      6  1   0.00   20.6847   15.6823    0.0000      0      0      0
   321      6  1   0.00   21.2206   15.5325    0.0000      0      0      0
   322      6  1   0.00   21.0368   16.4340    0.0000      0      0      0
   323      6  1   0.00   20.8018   15.8533    0.0000      0      0      0
   324      6  1   0.00   20.0800   15.9041    0.0000      0      0      0
   325      6  1   0.00   20.6098   16.4171    0.0000      0      0      0
   326      6  1   0.00   21.2732   16.0077    0.0000      0      0      0
   327      6  1   0.00   20.4574   16.4359    0.0000      0      0      0
   328      6  1   0.00   21.1085   16.3683    0.0000      0      0      0
   329      6  1   0.00   21.7538   15.9925    0.0000      0      0      0
   330      6  1   0.00   20.9840   16.4078    0.0000      0      0      0
   331      6  1   0.00   21.5830   16.7942    0.0000      0      0      0
   332      6  1   0.00   20.9744   16.5452    0.0000      0      0      0
   333      6  1   0.00   21.5818   16.7343    0.0000      0      0      0
   334      6  1   0.00   21.2932   17.1264    0.0000      0      0      0
   335      6  1   0.00   22.2359   17.3339    0.0000      0      0      0
   336      6  1   0.00   22.5862   16.7315    0.0000      0      0      0
   337      6  1   0.00   23.4356   17.0256    0.0000      0      0      0
   338      6  1   0.00   23.0695   17.9169    0.0000      0      0      0
   339      6  1   0.00   23.7240   17.6993    0.0000      0      0      0
   340      6  1   0.00   23.6541   18.5493    0.0000      0      0      0
   341      6  1   0.00   23.4100   18.0436    0.0000      0      0      0
   342      6  1   0.00   22.9422   18.7960    0.0000      0      0      0
   343      6  1   0.00   22.5449   19.5680    0.0000      0      0      0
   344      6  1   0.00   23.2627   19.0736    0.0000      0      0      0
   345      6  1   0.00   22.9559   18.5042    0.0000      0      0      0
   346      6  1   0.00   23.5538   17.8015    0.0000      0      0      0
   347      6  1   0.00   22.9958   17.0265    0.0000      0      0      0
   348      6  1   0.00   22.6180   16.8531    0.0000      0      0      0
   349      6  1   0.00   22.3390   16.0917    0.0000      0      0      0
   350      6  1   0.00   22.7650   15.2416    0.0000      0      0      0
   351      6  1   0.00   22.0339   15.1151    0.0000      0      0      0
   352      6  1   0.00   22.8291   14.7057    0.0000      0      0      0
   353      6  1   0.00   22.0571   14.5511    0.0000      0      0      0
   354      6  1   0.00   21.8927   15.2520    0.0000      0      0      0
   355      6  1   0.00   22.4037   14.8560    0.0000      0      0      0
   356      6  1   0.00   22.6873   15.7772    0.0000      0      0      0
   357      6  1   0.00   23.0455   14.9061    0.0000      0      0      0
   358      6  1   0.00   23.7791   15.5084    0.0000      0      0      0
   359      6  1   0.00   24.4485   15.2844    0.0000      0      0      0
   360      6  1   0.00   23.8801   14.5933    0.0000      0      0      0
   361      7  1   0.00   22.7820    9.4114    4.0138      0      0      0
   362      7  1   0.00   22.2231   10.1685    0.0000      0      0      0
   363      7  1   0.00   23.1561   10.4046    0.0000      0      0      0
   364      7  1   0.00   24.0277   10.7464    0.0000      0      0      0
   365      7  1   0.00   23.5227   11.3165    0.0000      0      0      0
   366      7  1   0.00   22.6574   11.6122    0.0000      0      0      0
   367      7  1   0.00   23.0355   10.7208    0.0000      0      0      0
   368      7  1   0.00   22.6408   10.3859    0.0000      0      0      0
   369      7  1   0.00   22.6618    9.6259    0.0000      0      0      0
   370      7  1   0.00   22.1798   10.3362    0.0000      0      0      0
   371      7  1   0.00   22.2367   11.3026    0.0000      0      0      0
   372      7  1   0.00   21.7178   11.0736    0.0000      0      0      0
   373      7  1   0.00   22.1419   10.4659    0.0000      0      0      0
   374      7  1   0.00   21.9910   10.2093    0.0000      0      0      0
   375      7  1   0.00   22.8032   10.3717    0.0000      0      0      0
   376      7  1   0.00   23.0410    9.7102    0.0000      0      0      0
   377      7  1   0.00   22.6782   10.6079    0.0000      0      0      0
   378      7  1   0.00   21.8023   10.7403    0.0000      0      0      0
   379      7  1   0.00   21.4983   11.5384    0.0000      0      0      0
   380      7  1   0.00   21.8405   11.9992    0.0000      0      0      0
   381      7  1   0.00   21.3740   12.8497    0.0000      0      0      0
   382      7  1   0.00   21.3143   12.6025    0.0000      0      0      0
   383      7  1   0.00   21.7806   11.7616    0.0000      0      0      0
   384      7  1   0.00   22.0005   11.0058    0.0000      0      0      0
   385      7  1   0.00   22.4879   11.8291    0.0000      0      0      0
   386      7  1   0.00   22.0126   11.9977    0.0000      0      0      0
   387      7  1   0.00   22.5484   11.4661    0.0000      0      0      0
   388      7  1   0.00   21.5840   11.3923    0.0000      0      0      0
   389      7  1   0.00   22.0428   12.2327    0.0000      0      0      0
   390      7  1   0.00   21.3064   12.6782    0.0000      0      0      0
   391      7  1   0.00   21.4294   11.9144    0.0000      0      0      0
   392      7  1   0.00   20.9017   12.4351    0.0000      0      0      0
   393      7  1   0.00   20.1208   12.9814    0.0000      0      0      0
   394      7  1   0.00   20.6347   13.6019    0.0000      0      0      0
   395      7  1   0.00   20.2141   14.2515    0.0000      0      0      0