#PolymerMelt 12/2023

      5000    atoms
      4900    bonds
      4800    angles
1    atom types
1    bond types
1    angle types

      -9.02582753       9.02582753   xlo xhi
      -9.02582753       9.02582753   ylo yhi
      -9.02582753       9.02582753   zlo zhi

Atoms

     1      1  1   0.00   15.0945   17.6489    6.9455      0      0      0
     2      1  1   0.00   15.4534   17.8821    6.0750      0      0      0
     3      1  1   0.00   16.3679   17.6452    5.8548      0      0      0
     4      1  1   0.00   16.1294   18.5598    6.0729      0      0      0
     5      1  1   0.00   16.8102   17.8803    5.9476      0      0      0
     6      1  1   0.00   17.5987   17.6020    6.4393      0      0      0
     7      1  1   0.00   18.4824   17.6478    6.0421      0      0      0
     8      1  1   0.00   18.5758   16.6832    5.9997      0      0      0
     9      1  1   0.00   18.9441   16.1166    6.6956      0      0      0
    10      1  1   0.00   19.5271   15.8104    5.9833      0      0      0
    11      1  1   0.00   18.8311   15.6174    6.6309      0      0      0
    12      1  1   0.00   18.4103   15.9970    5.8437      0      0      0
    13      1  1   0.00   19.2426   15.5369    6.0349      0      0      0
    14      1  1   0.00   19.9703   14.9042    5.9300      0      0      0
    15      1  1   0.00   20.4240   14.5751    5.1383      0      0      0
    16      1  1   0.00   19.9260   13.8720    5.5839      0      0      0
    17      1  1   0.00   20.8567   14.0303    5.3609      0      0      0
    18      1  1   0.00   21.1445   14.8299    5.8286      0      0      0
    19      1  1   0.00   20.3713   14.6607    6.3893      0      0      0
    20      1  1   0.00   19.7883   14.1092    6.9341      0      0      0
    21      1  1   0.00   18.9076   13.7207    7.0542      0      0      0
    22      1  1   0.00   19.5924   13.8093    7.7355      0      0      0
    23      1  1   0.00   18.8013   14.1902    8.1478      0      0      0
    24      1  1   0.00   18.5829   14.9790    7.6273      0      0      0
    25      1  1   0.00   17.8037   14.7395    8.1530      0      0      0
    26      1  1   0.00   18.6141   14.7203    7.6203      0      0      0
    27      1  1   0.00   18.0338   15.3568    8.0663      0      0      0
    28      1  1   0.00   17.4790   14.7849    7.5131      0      0      0
    29      1  1   0.00   17.9557   15.3606    6.8948      0      0      0
    30      1  1   0.00   18.8290   15.7785    6.8350      0      0      0
    31      1  1   0.00   19.0186   15.3798    7.6987      0      0      0
    32      1  1   0.00   19.9668   15.2613    7.5316      0      0      0
    33      1  1   0.00   20.0915   14.5982    6.8347      0      0      0
    34      1  1   0.00   20.3179   13.8620    6.2452      0      0      0
    35      1  1   0.00   20.5791   14.7694    6.4670      0      0      0
    36      1  1   0.00   21.1691   14.2962    7.0744      0      0      0
    37      1  1   0.00   21.3345   15.1784    7.4423      0      0      0
    38      1  1   0.00   22.1811   15.4271    7.0394      0      0      0
    39      1  1   0.00   22.2243   15.4145    6.0704      0      0      0
    40      1  1   0.00   22.4061   16.2532    6.5226      0      0      0
    41      1  1   0.00   22.1082   17.1758    6.4917      0      0      0
    42      1  1   0.00   21.4510   17.4972    5.8548      0      0      0
    43      1  1   0.00   21.1882   17.7782    6.7452      0      0      0
    44      1  1   0.00   21.1104   17.0256    7.3522      0      0      0
    45      1  1   0.00   20.2134   17.0801    7.7172      0      0      0
    46      1  1   0.00   20.0437   16.9594    6.7699      0      0      0
    47      1  1   0.00   20.9103   16.5554    6.9329      0      0      0
    48      1  1   0.00   21.1303   17.1593    6.2064      0      0      0
    49      1  1   0.00   22.0577   17.4164    6.0848      0      0      0
    50      1  1   0.00   21.2337   17.9022    6.2456      0      0      0
    51      2  1   0.00   11.1745    2.3769    7.4150      0      0      0
    52      2  1   0.00   11.7098    3.0214    7.9038      0      0      0
    53      2  1   0.00   12.3793    2.6301    7.3211      0      0      0
    54      2  1   0.00   11.8538    1.8617    7.0485      0      0      0
    55      2  1   0.00   11.4523    2.7240    6.8589      0      0      0
    56      2  1   0.00   10.8009    3.3512    7.2100      0      0      0
    57      2  1   0.00   10.0131    3.5041    6.6651      0      0      0
    58      2  1   0.00   10.1080    4.2249    6.0229      0      0      0
    59      2  1   0.00    9.2902    3.7445    6.2263      0      0      0
    60      2  1   0.00    8.9752    2.8299    6.2979      0      0      0
    61      2  1   0.00    8.3619    3.5646    6.4559      0      0      0
    62      2  1   0.00    9.0558    3.0808    5.9812      0      0      0
    63      2  1   0.00    8.3879    3.7843    5.9855      0      0      0
    64      2  1   0.00    8.0789    3.1986    6.6943      0      0      0
    65      2  1   0.00    7.2236    3.0962    7.1403      0      0      0
    66      2  1   0.00    7.5369    2.4558    7.7981      0      0      0
    67      2  1   0.00    8.1586    2.3848    8.5393      0      0      0
    68      2  1   0.00    8.2942    1.5892    9.0773      0      0      0
    69      2  1   0.00    9.0516    1.9395    9.5716      0      0      0
    70      2  1   0.00    8.9470    2.8647    9.2995      0      0      0
    71      2  1   0.00    9.2690    2.2117    9.9404      0      0      0
    72      2  1   0.00    9.7725    1.6164    9.3632      0      0      0
    73      2  1   0.00    9.4717    0.7098    9.1947      0      0      0
    74      2  1   0.00   10.1935    1.3329    9.3724      0      0      0
    75      2  1   0.00    9.9421    0.8672    8.5595      0      0      0
    76      2  1   0.00    9.2111    1.4752    8.7515      0      0      0
    77      2  1   0.00    9.5144    0.6013    9.0432      0      0      0
    78      2  1   0.00    9.1181    1.0583    9.8015      0      0      0
    79      2  1   0.00    8.5372    0.6356   10.4532      0      0      0
    80      2  1   0.00    7.8691    1.3089   10.2503      0      0      0
    81      2  1   0.00    8.6202    0.9001    9.7924      0      0      0
    82      2  1   0.00    7.8721    1.1498    9.2277      0      0      0
    83      2  1   0.00    7.3443    0.4884    8.7534      0      0      0
    84      2  1   0.00    7.0305   -0.0189    7.9886      0      0      0
    85      2  1   0.00    7.3574    0.6292    8.6320      0      0      0
    86      2  1   0.00    7.3270    1.5182    9.0189      0      0      0
    87      2  1   0.00    8.1711    1.2366    9.4050      0      0      0
    88      2  1   0.00    8.1948    1.9670   10.0429      0      0      0
    89      2  1   0.00    8.8857    1.8300    9.3760      0      0      0
    90      2  1   0.00    8.2247    2.5167    9.5561      0      0      0
    91      2  1   0.00    7.6704    3.1425   10.0482      0      0      0
    92      2  1   0.00    6.9643    3.4712   10.6263      0      0      0
    93      2  1   0.00    7.8967    3.2066   10.5884      0      0      0
    94      2  1   0.00    8.1398    2.7598    9.7624      0      0      0
    95      2  1   0.00    8.4470    3.1947   10.5733      0      0      0
    96      2  1   0.00    8.4626    2.2390   10.4080      0      0      0
    97      2  1   0.00    9.2073    2.7591   10.7482      0      0      0
    98      2  1   0.00    8.7172    3.4344   10.2535      0      0      0
    99      2  1   0.00    8.2021    2.7271   10.6723      0      0      0
   100      2  1   0.00    7.5317    2.3350   11.2534      0      0      0
   101      3  1   0.00    3.9472    9.9357   13.5018      0      0      0
   102      3  1   0.00    4.0779   10.7174   14.0611      0      0      0
   103      3  1   0.00    4.8308   11.0369   14.5825      0      0      0
   104      3  1   0.00    4.4903   11.7701   15.1186      0      0      0
   105      3  1   0.00    3.8541   11.0546   14.9631      0      0      0
   106      3  1   0.00    4.4463   11.0911   14.1957      0      0      0
   107      3  1   0.00    4.5669   11.6870   13.4399      0      0      0
   108      3  1   0.00    4.9337   11.0202   12.8385      0      0      0
   109      3  1   0.00    5.1128   11.7117   13.4947      0      0      0
   110      3  1   0.00    5.7476   12.4376   13.3901      0      0      0
   111      3  1   0.00    6.5815   12.6341   12.9352      0      0      0
   112      3  1   0.00    6.1772   11.7919   13.1962      0      0      0
   113      3  1   0.00    6.3396   11.0110   13.7483      0      0      0
   114      3  1   0.00    5.9801   10.4802   13.0203      0      0      0
   115      3  1   0.00    5.1790   11.0144   12.9033      0      0      0
   116      3  1   0.00    5.6246   11.6394   13.4964      0      0      0
   117      3  1   0.00    6.2102   11.1894   12.8675      0      0      0
   118      3  1   0.00    6.6620   10.5328   12.3147      0      0      0
   119      3  1   0.00    7.3758   11.0495   12.7201      0      0      0
   120      3  1   0.00    8.3026   11.3344   12.6903      0      0      0
   121      3  1   0.00    7.8246   11.8317   13.3723      0      0      0
   122      3  1   0.00    7.1183   11.2410   13.6775      0      0      0
   123      3  1   0.00    7.7374   10.6443   14.1264      0      0      0
   124      3  1   0.00    8.6509   10.3542   13.9767      0      0      0
   125      3  1   0.00    9.2683   10.7109   14.6343      0      0      0
   126      3  1   0.00   10.0366   10.6066   15.2172      0      0      0
   127      3  1   0.00   10.7380   10.0861   15.6391      0      0      0
   128      3  1   0.00   11.1329    9.3962   15.0833      0      0      0
   129      3  1   0.00   10.4834    8.7803   15.4570      0      0      0
   130      3  1   0.00   10.9975    8.4615   14.6987      0      0      0
   131      3  1   0.00   11.1415    9.4201   14.6622      0      0      0
   132      3  1   0.00   11.2354    9.2443   15.6115      0      0      0
   133      3  1   0.00   11.8195    9.7446   16.2027      0      0      0
   134      3  1   0.00   12.0178    9.0618   15.5428      0      0      0
   135      3  1   0.00   12.3355    9.7958   14.9940      0      0      0
   136      3  1   0.00   12.5727   10.5530   15.5519      0      0      0
   137      3  1   0.00   13.1855    9.8274   15.7492      0      0      0
   138      3  1   0.00   13.2823    9.0408   15.1898      0      0      0
   139      3  1   0.00   14.2182    9.2134   15.3776      0      0      0
   140      3  1   0.00   15.0891    9.5836   15.5902      0      0      0
   141      3  1   0.00   15.6990    9.8764   16.2854      0      0      0
   142      3  1   0.00   15.0554   10.2251   16.9220      0      0      0
   143      3  1   0.00   14.6807    9.7743   17.6948      0      0      0
   144      3  1   0.00   14.2077    9.2940   16.9973      0      0      0
   145      3  1   0.00   15.0307    8.7860   16.9225      0      0      0
   146      3  1   0.00   15.7574    8.1892   17.1602      0      0      0
   147      3  1   0.00   16.5905    8.4691   17.5705      0      0      0
   148      3  1   0.00   17.0693    7.8222   18.1120      0      0      0
   149      3  1   0.00   17.4874    7.5764   17.2720      0      0      0
   150      3  1   0.00   18.1186    7.5959   18.0083      0      0      0
   151      4  1   0.00    5.9794   13.3545   13.8058      0      0      0
   152      4  1   0.00    5.9335   14.1579   14.3474      0      0      0
   153      4  1   0.00    5.7306   15.0449   14.6836      0      0      0
   154      4  1   0.00    5.3344   14.8005   13.8327      0      0      0
   155      4  1   0.00    5.5695   15.2729   14.6466      0      0      0
   156      4  1   0.00    4.6937   15.6113   14.8902      0      0      0
   157      4  1   0.00    4.3873   15.0298   15.6036      0      0      0
   158      4  1   0.00    3.8097   14.2632   15.4637      0      0      0
   159      4  1   0.00    3.3912   15.1111   15.2475      0      0      0
   160      4  1   0.00    4.0628   14.4343   15.4260      0      0      0
   161      4  1   0.00    4.7524   14.6485   14.7784      0      0      0
   162      4  1   0.00    5.2225   14.9269   15.5798      0      0      0
   163      4  1   0.00    4.6843   14.2250   15.1815      0      0      0
   164      4  1   0.00    5.0516   13.7295   14.4329      0      0      0
   165      4  1   0.00    4.5892   14.5110   14.0921      0      0      0
   166      4  1   0.00    3.8236   14.5113   14.6877      0      0      0
   167      4  1   0.00    3.1583   14.9638   15.2295      0      0      0
   168      4  1   0.00    3.4565   14.2693   15.8375      0      0      0
   169      4  1   0.00    2.7963   13.6564   16.1971      0      0      0
   170      4  1   0.00    3.1485   14.5201   16.4631      0      0      0
   171      4  1   0.00    2.5032   14.8706   15.8293      0      0      0
   172      4  1   0.00    3.1266   14.1919   16.1323      0      0      0
   173      4  1   0.00    3.9136   13.6263   16.0914      0      0      0
   174      4  1   0.00    3.1014   13.2387   15.7293      0      0      0
   175      4  1   0.00    2.5431   13.8598   15.2359      0      0      0
   176      4  1   0.00    3.5123   13.8224   15.2517      0      0      0
   177      4  1   0.00    2.6985   14.3357   15.3755      0      0      0
   178      4  1   0.00    1.8295   13.9851   15.1250      0      0      0
   179      4  1   0.00    1.4339   14.8374   15.3658      0      0      0
   180      4  1   0.00    1.1857   15.0138   14.4449      0      0      0
   181      4  1   0.00    0.4051   15.2382   13.9145      0      0      0
   182      4  1   0.00    1.0541   14.6050   14.2592      0      0      0
   183      4  1   0.00    1.2740   14.0371   15.0142      0      0      0
   184      4  1   0.00    1.9956   14.3974   15.5530      0      0      0
   185      4  1   0.00    2.3416   14.1476   16.4241      0      0      0
   186      4  1   0.00    1.7210   13.8353   17.1010      0      0      0
   187      4  1   0.00    2.6103   14.1510   17.3252      0      0      0
   188      4  1   0.00    2.5852   15.0420   17.7077      0      0      0
   189      4  1   0.00    2.3074   14.7298   18.5830      0      0      0
   190      4  1   0.00    2.6680   14.6206   19.4768      0      0      0
   191      4  1   0.00    3.1845   13.8003   19.4410      0      0      0
   192      4  1   0.00    3.5873   14.6807   19.5007      0      0      0
   193      4  1   0.00    4.2033   14.7368   18.7536      0      0      0
   194      4  1   0.00    5.0107   14.6751   18.2196      0      0      0
   195      4  1   0.00    4.7118   15.4814   18.6682      0      0      0
   196      4  1   0.00    4.9657   14.8946   19.3976      0      0      0
   197      4  1   0.00    5.5222   14.1252   19.1996      0      0      0
   198      4  1   0.00    6.0251   14.9373   19.0310      0      0      0
   199      4  1   0.00    6.9861   14.8753   19.1477      0      0      0
   200      4  1   0.00    7.1893   14.2939   19.8970      0      0      0
   201      5  1   0.00   10.7978   10.5238   13.9553      0      0      0
   202      5  1   0.00   11.5232   10.9776   13.4985      0      0      0
   203      5  1   0.00   11.4532   10.3352   12.7751      0      0      0
   204      5  1   0.00   12.1319    9.7247   12.4471      0      0      0
   205      5  1   0.00   12.9041    9.8215   11.8682      0      0      0
   206      5  1   0.00   13.4933    9.2893   12.4255      0      0      0
   207      5  1   0.00   12.8901    9.3183   13.1846      0      0      0
   208      5  1   0.00   12.3141    9.4839   13.9472      0      0      0
   209      5  1   0.00   11.8331    8.8151   14.4593      0      0      0
   210      5  1   0.00   12.3799    8.2490   13.8922      0      0      0
   211      5  1   0.00   11.8598    8.8175   14.4815      0      0      0
   212      5  1   0.00   11.3515    8.2566   13.8751      0      0      0
   213      5  1   0.00   10.4921    8.5564   14.2104      0      0      0
   214      5  1   0.00   10.9875    8.9941   13.5005      0      0      0
   215      5  1   0.00   11.7886    9.4008   13.1348      0      0      0
   216      5  1   0.00   11.4764   10.2499   13.4846      0      0      0
   217      5  1   0.00   12.2556    9.6746   13.4314      0      0      0
   218      5  1   0.00   12.8184    9.2508   12.7647      0      0      0
   219      5  1   0.00   13.2962    9.0784   11.9384      0      0      0
   220      5  1   0.00   13.4256    9.9162   11.4670      0      0      0
   221      5  1   0.00   13.3600   10.0310   12.4280      0      0      0
   222      5  1   0.00   13.7339    9.4109   11.7826      0      0      0
   223      5  1   0.00   14.0678    9.1186   10.9201      0      0      0
   224      5  1   0.00   14.4226    8.4513   10.3120      0      0      0
   225      5  1   0.00   15.0918    7.9054    9.8703      0      0      0
   226      5  1   0.00   15.2990    8.8172   10.1281      0      0      0
   227      5  1   0.00   15.8848    9.1561   10.8231      0      0      0
   228      5  1   0.00   16.0668    9.8309   10.1505      0      0      0
   229      5  1   0.00   16.5973   10.3540    9.5294      0      0      0
   230      5  1   0.00   15.9201    9.8032    9.9524      0      0      0
   231      5  1   0.00   16.5438   10.4550    9.5959      0      0      0
   232      5  1   0.00   17.1567   11.0960    9.9890      0      0      0
   233      5  1   0.00   17.7455   11.5169    9.3432      0      0      0
   234      5  1   0.00   17.3135   11.3273    8.4957      0      0      0
   235      5  1   0.00   17.0060   10.6079    7.9223      0      0      0
   236      5  1   0.00   16.9765    9.7685    7.4370      0      0      0
   237      5  1   0.00   16.2168   10.3465    7.2645      0      0      0
   238      5  1   0.00   16.9609    9.9691    6.7698      0      0      0
   239      5  1   0.00   17.5539   10.1407    6.0216      0      0      0
   240      5  1   0.00   18.0891    9.5181    6.5382      0      0      0
   241      5  1   0.00   18.6677    9.7070    7.2936      0      0      0
   242      5  1   0.00   19.2439   10.0922    7.9722      0      0      0
   243      5  1   0.00   19.4900    9.7045    7.1178      0      0      0
   244      5  1   0.00   20.3400   10.0436    7.4394      0      0      0
   245      5  1   0.00   20.2296   10.9037    7.8739      0      0      0
   246      5  1   0.00   20.8791   11.6234    7.8403      0      0      0
   247      5  1   0.00   21.4610   11.0895    7.2771      0      0      0
   248      5  1   0.00   22.1303   11.1672    6.5793      0      0      0
   249      5  1   0.00   22.7112   10.5339    7.0293      0      0      0
   250      5  1   0.00   23.4700   10.8319    6.5036      0      0      0
   251      6  1   0.00   10.5435    7.7805   17.2045      0      0      0
   252      6  1   0.00   11.0020    7.1453   17.7766      0      0      0
   253      6  1   0.00   11.3857    7.2783   16.8957      0      0      0
   254      6  1   0.00   11.7478    6.8418   16.1088      0      0      0
   255      6  1   0.00   12.2821    7.2615   16.8011      0      0      0
   256      6  1   0.00   11.6489    7.9895   16.7016      0      0      0
   257      6  1   0.00   12.6133    7.9374   16.6123      0      0      0
   258      6  1   0.00   12.0482    8.4460   17.2146      0      0      0
   259      6  1   0.00   12.6886    8.4697   16.4865      0      0      0
   260      6  1   0.00   12.8378    8.1231   15.5929      0      0      0
   261      6  1   0.00   12.2550    8.1361   16.3682      0      0      0
   262      6  1   0.00   11.9430    7.4752   15.7304      0      0      0
   263      6  1   0.00   12.6595    7.0775   16.2493      0      0      0
   264      6  1   0.00   11.9871    7.7670   16.3646      0      0      0
   265      6  1   0.00   11.7578    7.5761   15.4416      0      0      0
   266      6  1   0.00   12.5701    7.0718   15.6051      0      0      0
   267      6  1   0.00   13.0992    7.6414   16.1853      0      0      0
   268      6  1   0.00   13.0787    8.0865   15.3237      0      0      0
   269      6  1   0.00   13.7773    8.7574   15.2707      0      0      0
   270      6  1   0.00   12.9573    8.4936   15.7167      0      0      0
   271      6  1   0.00   12.0778    8.5326   16.1241      0      0      0
   272      6  1   0.00   11.7591    9.0765   15.3869      0      0      0
   273      6  1   0.00   12.2961    8.2889   15.2074      0      0      0
   274      6  1   0.00   11.6650    8.2131   14.4747      0      0      0
   275      6  1   0.00   11.0086    8.7866   14.0492      0      0      0
   276      6  1   0.00   10.3209    8.9595   13.3873      0      0      0
   277      6  1   0.00    9.5524    8.9294   12.7962      0      0      0
   278      6  1   0.00    8.6326    9.1061   13.0486      0      0      0
   279      6  1   0.00    9.1302    9.2947   13.8596      0      0      0
   280      6  1   0.00    8.4300    8.7562   14.2603      0      0      0
   281      6  1   0.00    9.0654    8.4791   13.5818      0      0      0
   282      6  1   0.00    9.8975    8.9294   13.3679      0      0      0
   283      6  1   0.00   10.5269    9.2843   12.7208      0      0      0
   284      6  1   0.00    9.9306    9.4711   13.4627      0      0      0
   285      6  1   0.00    9.3366    8.7668   13.1594      0      0      0
   286      6  1   0.00    8.6713    8.0622   13.1161      0      0      0
   287      6  1   0.00    9.2459    7.4889   12.5851      0      0      0
   288      6  1   0.00    9.1134    8.2265   13.2009      0      0      0
   289      6  1   0.00    9.3346    7.2961   13.3631      0      0      0
   290      6  1   0.00    9.6250    6.5437   12.8241      0      0      0
   291      6  1   0.00    8.8692    6.6343   12.2229      0      0      0
   292      6  1   0.00    8.7179    6.0506   11.4632      0      0      0
   293      6  1   0.00    9.3857    6.4698   12.0280      0      0      0
   294      6  1   0.00    9.9520    6.1819   12.7610      0      0      0
   295      6  1   0.00    9.3536    6.5933   12.1179      0      0      0
   296      6  1   0.00    9.9266    7.1262   11.5446      0      0      0
   297      6  1   0.00    9.4698    6.2872   11.3762      0      0      0
   298      6  1   0.00   10.0244    6.2693   10.5805      0      0      0
   299      6  1   0.00   10.1526    5.7000    9.8057      0      0      0
   300      6  1   0.00   10.1678    5.8347   10.7662      0      0      0
   301      7  1   0.00    7.9990   12.8070   10.0276      0      0      0
   302      7  1   0.00    8.5735   13.2405   10.6780      0      0      0
   303      7  1   0.00    8.8702   12.3194   10.6115      0      0      0
   304      7  1   0.00    8.1344   12.5610   10.0274      0      0      0
   305      7  1   0.00    8.7579   13.0489   10.5878      0      0      0
   306      7  1   0.00    8.9041   12.6264    9.7270      0      0      0
   307      7  1   0.00    9.5601   11.9443    9.9398      0      0      0
   308      7  1   0.00    9.9754   11.2247   10.4405      0      0      0
   309      7  1   0.00    9.8482   11.8926   11.1324      0      0      0
   310      7  1   0.00   10.0450   12.1032   10.2062      0      0      0
   311      7  1   0.00   10.5041   11.4543   10.7622      0      0      0
   312      7  1   0.00   10.9161   10.6012   10.5539      0      0      0
   313      7  1   0.00   10.8042   10.0464    9.7662      0      0      0
   314      7  1   0.00   10.1429    9.4425   10.1387      0      0      0
   315      7  1   0.00    9.7397   10.3242   10.1080      0      0      0
   316      7  1   0.00   10.0772   11.2277   10.0050      0      0      0
   317      7  1   0.00   10.9451   11.6449    9.8883      0      0      0
   318      7  1   0.00   10.2498   11.6074    9.2129      0      0      0
   319      7  1   0.00   10.9709   11.0194    8.9385      0      0      0
   320      7  1   0.00   11.0061   10.3370    8.2500      0      0      0
   321      7  1   0.00   10.5607   10.7084    7.4725      0      0      0
   322      7  1   0.00   10.7392    9.7676    7.3178      0      0      0
   323      7  1   0.00   10.0893   10.4407    7.0619      0      0      0
   324      7  1   0.00    9.3604    9.8025    7.1092      0      0      0
   325      7  1   0.00    9.2005    9.4368    7.9933      0      0      0
   326      7  1   0.00    8.8031    8.9982    7.2247      0      0      0
   327      7  1   0.00    9.2260    8.5129    6.4992      0      0      0
   328      7  1   0.00    8.3073    8.2291    6.6268      0      0      0
   329      7  1   0.00    9.1019    8.7620    6.4674      0      0      0
   330      7  1   0.00    9.8196    8.1145    6.3858      0      0      0
   331      7  1   0.00   10.5597    7.6341    6.7886      0      0      0
   332      7  1   0.00   11.0234    7.1366    6.0970      0      0      0
   333      7  1   0.00   10.0682    7.1515    6.2652      0      0      0
   334      7  1   0.00   10.4689    6.5555    6.9172      0      0      0
   335      7  1   0.00   10.8645    5.7950    6.4632      0      0      0
   336      7  1   0.00   10.7181    6.4509    7.1627      0      0      0
   337      7  1   0.00   10.1336    6.8774    7.8087      0      0      0
   338      7  1   0.00    9.6611    6.1838    8.2952      0      0      0
   339      7  1   0.00   10.0869    6.7277    8.9763      0      0      0
   340      7  1   0.00    9.7310    7.5378    9.3736      0      0      0
   341      7  1   0.00   10.6707    7.7343    9.5120      0      0      0
   342      7  1   0.00   10.9436    7.2834    8.6977      0      0      0
   343      7  1   0.00   10.4919    6.5350    8.2773      0      0      0
   344      7  1   0.00   10.5231    7.0286    7.4429      0      0      0
   345      7  1   0.00   10.5673    6.3535    6.7478      0      0      0
   346      7  1   0.00   10.1070    7.0076    7.2966      0      0      0
   347      7  1   0.00    9.2332    6.7509    7.6304      0      0      0
   348      7  1   0.00    8.3702    6.5473    7.2370      0      0      0
   349      7  1   0.00    8.2996    7.3352    6.6756      0      0      0
   350      7  1   0.00    7.7779    7.6779    7.4182      0      0      0
   351      8  1   0.00    3.5280   13.5196   14.2274      0      0      0
   352      8  1   0.00    3.1334   13.6973   13.3592      0      0      0
   353      8  1   0.00    2.2906   13.2483   13.1887      0      0      0
   354      8  1   0.00    2.6153   13.9058   13.8237      0      0      0
   355      8  1   0.00    2.3625   14.8219   13.6292      0      0      0
   356      8  1   0.00    2.6925   15.6429   14.0266      0      0      0
   357      8  1   0.00    1.9814   14.9851   13.9763      0      0      0
   358      8  1   0.00    2.5532   14.8305   14.7445      0      0      0
   359      8  1   0.00    2.2012   13.9448   14.9250      0      0      0
   360      8  1   0.00    1.9474   13.2862   14.2596      0      0      0
   361      8  1   0.00    1.3135   13.9324   14.6081      0      0      0
   362      8  1   0.00    0.3972   14.0227   14.9134      0      0      0
   363      8  1   0.00    1.1444   13.8383   15.5038      0      0      0
   364      8  1   0.00    1.4810   14.7388   15.6330      0      0      0
   365      8  1   0.00    0.8227   14.3488   15.0367      0      0      0
   366      8  1   0.00    1.5876   14.4980   14.4590      0      0      0
   367      8  1   0.00    1.9577   13.8567   15.0856      0      0      0
   368      8  1   0.00    1.7494   13.8088   14.1395      0      0      0
   369      8  1   0.00    0.9298   14.3162   14.2480      0      0      0
   370      8  1   0.00    0.1149   13.7923   14.2963      0      0      0
   371      8  1   0.00    0.0096   14.3201   15.1033      0      0      0
   372      8  1   0.00   -0.3551   14.7008   14.2890      0      0      0
   373      8  1   0.00    0.5603   14.4860   14.5273      0      0      0
   374      8  1   0.00    0.0102   13.7018   14.3748      0      0      0
   375      8  1   0.00   -0.1551   14.1091   13.5101      0      0      0
   376      8  1   0.00   -0.1277   14.8206   14.1688      0      0      0
   377      8  1   0.00   -0.3268   14.0345   13.6365      0      0      0
   378      8  1   0.00   -1.2165   13.9152   13.2690      0      0      0
   379      8  1   0.00   -2.1599   13.9315   13.0442      0      0      0
   380      8  1   0.00   -1.3197   14.3254   12.7618      0      0      0
   381      8  1   0.00   -1.2800   13.8317   13.5958      0      0      0
   382      8  1   0.00   -1.3701   14.5556   12.9565      0      0      0
   383      8  1   0.00   -0.7116   13.9717   12.5487      0      0      0
   384      8  1   0.00    0.2302   14.0261   12.7747      0      0      0
   385      8  1   0.00    0.8062   13.2806   12.5439      0      0      0
   386      8  1   0.00    1.4140   13.9314   12.9283      0      0      0
   387      8  1   0.00    0.9493   14.7601   13.1237      0      0      0
   388      8  1   0.00    1.7399   14.2507   12.8864      0      0      0
   389      8  1   0.00    1.2045   13.5541   13.2974      0      0      0
   390      8  1   0.00    0.6447   12.8903   12.8652      0      0      0
   391      8  1   0.00   -0.0200   12.4452   13.4138      0      0      0
   392      8  1   0.00   -0.0366   13.4056   13.2784      0      0      0
   393      8  1   0.00   -0.3075   13.0390   14.1347      0      0      0
   394      8  1   0.00    0.1176   13.6062   14.7968      0      0      0
   395      8  1   0.00   -0.3158   14.3460   15.2504      0      0      0
   396      8  1   0.00   -1.1507   13.8886   15.0644      0      0      0