LAMMPS (2 Aug 2023)
#This program is free software: you can redistribute it and/or modify
#    it under the terms of the GNU General Public License as published by
#    the Free Software Foundation, either version 3 of the License, or
#    (at your option) any later version.
#
#    This program is distributed in the hope that it will be useful,
#    but WITHOUT ANY WARRANTY; without even the implied warranty of
#    MERCHANTABILITY or FITNESS FOR A PARTICULAR PURPOSE.  See the
#    GNU General Public License for more details.

############## Nbb=3 Janani Sampath#################


units		lj
atom_style	full

read_data     input_semiflexible_dispersity.lammps #input_SemiFlexible.lammps
Reading data file ...
  orthogonal box = (-24.750299 -24.750299 -24.750299) to (24.750299 24.750299 24.750299)
  1 by 1 by 1 MPI processor grid
  reading atoms ...
  103098 atoms
  scanning bonds ...
  1 = max bonds/atom
  scanning angles ...
  1 = max angles/atom
  reading bonds ...
  102098 bonds
  reading angles ...
  101098 angles
Finding 1-2 1-3 1-4 neighbors ...
  special bond factors lj:    0        0        0       
  special bond factors coul:  0        0        0       
     2 = max # of 1-2 neighbors
     2 = max # of 1-3 neighbors
     4 = max # of 1-4 neighbors
     6 = max # of special neighbors
  special bonds CPU = 0.025 seconds
  read_data CPU = 0.673 seconds


pair_style      soft 1.266 # soft 1.266
pair_coeff      * * 0.0
variable        prefactor equal 40.0*elapsed/100000
fix             softpushoff all adapt 1 pair soft a * * v_prefactor

bond_style	fene
bond_coeff	1 30.0 1.5 1.0 1.0
special_bonds	fene
Finding 1-2 1-3 1-4 neighbors ...
  special bond factors lj:    0        1        1       
  special bond factors coul:  0        1        1       
     2 = max # of 1-2 neighbors
     6 = max # of special neighbors
  special bonds CPU = 0.009 seconds

angle_style	cosine
angle_coeff	1 1.5

#dihedral_style	harmonic
#dihedral_coeff	1 80.0 1 2



#neighbor	1.0 bin

neigh_modify	every 1 delay 0 check yes


fix		fix1 all nvt temp 1.0 1.0 1.0


timestep	0.001


thermo		1000

thermo_style 	custom step temp press ke pe ebond eimp evdwl ecoul elong lx ly lz


#################Soft Pushoff#################

dump		dump1 all custom 50000 pushoff_semi_poly.dump id mol type q xs ys zs ix iy iz

run		100000
Generated 0 of 0 mixed pair_coeff terms from geometric mixing rule
WARNING: Communication cutoff 1.566 is shorter than a bond length based estimate of 1.7550000000000001. This may lead to errors. (src/comm.cpp:723)
Neighbor list info ...
  update: every = 1 steps, delay = 0 steps, check = yes
  max neighbors/atom: 2000, page size: 100000
  master list distance cutoff = 1.566
  ghost atom cutoff = 1.566
  binsize = 0.783, bins = 64 64 64
  1 neighbor lists, perpetual/occasional/extra = 1 0 0
  (1) pair soft, perpetual
      attributes: half, newton on
      pair build: half/bin/newton
      stencil: half/bin/3d
      bin: standard
WARNING: Communication cutoff 1.566 is shorter than a bond length based estimate of 1.7550000000000001. This may lead to errors. (src/comm.cpp:723)
Per MPI rank memory allocation (min/avg/max) = 60.69 | 60.69 | 60.69 Mbytes
   Step          Temp          Press          KinEng         PotEng         E_bond        E_impro         E_vdwl         E_coul         E_long           Lx             Ly             Lz      
         0   0             -2.2859765      0              21.513436      20.045256      0              0              0              0              49.500597      49.500597      49.500597    
      1000   0.57097625     0.55222162     0.85645606     21.549427      20.043187      0              0.58845031     0              0              49.500597      49.500597      49.500597    
      2000   0.87506615     0.9646515      1.3125865      21.659392      20.060343      0              0.733674       0              0              49.500597      49.500597      49.500597    
      3000   1.0194276      1.3079362      1.5291265      21.866979      20.080253      0              0.9169555      0              0              49.500597      49.500597      49.500597    
      4000   1.0697162      1.6316619      1.6045588      22.062934      20.101939      0              1.0733891      0              0              49.500597      49.500597      49.500597    
      5000   1.0706689      1.9643238      1.6059878      22.204967      20.120792      0              1.1839449      0              0              49.500597      49.500597      49.500597    
      6000   1.0757632      2.2974454      1.6136291      22.305888      20.140081      0              1.2560423      0              0              49.500597      49.500597      49.500597    
      7000   1.0633988      2.651118       1.5950827      22.410455      20.157313      0              1.3401757      0              0              49.500597      49.500597      49.500597    
      8000   1.0485531      2.9780627      1.5728144      22.512802      20.176832      0              1.4246406      0              0              49.500597      49.500597      49.500597    
      9000   1.0439282      3.3333973      1.5658771      22.594732      20.195444      0              1.488251       0              0              49.500597      49.500597      49.500597    
     10000   1.0449927      3.6708011      1.5674738      22.656621      20.214118      0              1.5337029      0              0              49.500597      49.500597      49.500597    
     11000   1.0562356      3.9997017      1.5843381      22.686804      20.232218      0              1.5530357      0              0              49.500597      49.500597      49.500597    
     12000   1.04156        4.3321159      1.5623249      22.745513      20.251265      0              1.5973961      0              0              49.500597      49.500597      49.500597    
     13000   1.0323427      4.6003531      1.548499       22.797805      20.268354      0              1.6384044      0              0              49.500597      49.500597      49.500597    
     14000   1.0305701      4.9447286      1.5458402      22.839767      20.28881       0              1.6678881      0              0              49.500597      49.500597      49.500597    
     15000   1.0305421      5.2435114      1.5457982      22.873657      20.305836      0              1.6925183      0              0              49.500597      49.500597      49.500597    
     16000   1.0281812      5.5043336      1.5422568      22.902139      20.323449      0              1.7092145      0              0              49.500597      49.500597      49.500597    
     17000   1.0157193      5.844311       1.5235641      22.94654       20.339924      0              1.7414486      0              0              49.500597      49.500597      49.500597    
     18000   1.014302       6.1433836      1.5214383      22.980437      20.3537        0              1.76916        0              0              49.500597      49.500597      49.500597    
     19000   1.0261478      6.3852544      1.5392067      22.989609      20.369687      0              1.7701628      0              0              49.500597      49.500597      49.500597    
     20000   1.0163764      6.6745172      1.5245498      23.019696      20.384532      0              1.790108       0              0              49.500597      49.500597      49.500597    
     21000   1.0082099      6.9450363      1.5123002      23.055055      20.394012      0              1.8198355      0              0              49.500597      49.500597      49.500597    
     22000   1.020895       7.1989821      1.5313276      23.061821      20.406013      0              1.8202032      0              0              49.500597      49.500597      49.500597    
     23000   1.0116885      7.4307021      1.517518       23.090883      20.414783      0              1.8447236      0              0              49.500597      49.500597      49.500597    
     24000   1.0074703      7.7024885      1.5111908      23.114965      20.424806      0              1.86256        0              0              49.500597      49.500597      49.500597    
     25000   1.0123337      7.9598503      1.5184858      23.128881      20.437108      0              1.8711465      0              0              49.500597      49.500597      49.500597    
     26000   1.0059142      8.2211701      1.5088566      23.154231      20.44402       0              1.891591       0              0              49.500597      49.500597      49.500597    
     27000   1.0097768      8.4862408      1.5146505      23.165659      20.449772      0              1.9034891      0              0              49.500597      49.500597      49.500597    
     28000   1.0075473      8.7092726      1.5113063      23.185436      20.45461       0              1.920281       0              0              49.500597      49.500597      49.500597    
     29000   1.0059406      8.9559         1.5088962      23.201516      20.458237      0              1.9355256      0              0              49.500597      49.500597      49.500597    
     30000   1.0056818      9.1427173      1.5085081      23.217878      20.462377      0              1.9513375      0              0              49.500597      49.500597      49.500597    
     31000   1.0068029      9.422926       1.5101898      23.230575      20.466862      0              1.9620675      0              0              49.500597      49.500597      49.500597    
     32000   1.0035002      9.6536083      1.5052357      23.249835      20.47248       0              1.9781447      0              0              49.500597      49.500597      49.500597    
     33000   1.0076274      9.8637688      1.5114265      23.259436      20.471241      0              1.9904725      0              0              49.500597      49.500597      49.500597    
     34000   1.0047834      10.089492      1.5071605      23.27791       20.475907      0              2.0068803      0              0              49.500597      49.500597      49.500597    
     35000   1.0059912      10.365469      1.5089722      23.290375      20.479963      0              2.018535       0              0              49.500597      49.500597      49.500597    
     36000   1.0049874      10.55335       1.5074665      23.304211      20.483299      0              2.0290172      0              0              49.500597      49.500597      49.500597    
     37000   1.0057616      10.735457      1.5086278      23.317692      20.481352      0              2.0465874      0              0              49.500597      49.500597      49.500597    
     38000   1.0062712      10.977172      1.5093922      23.329892      20.480225      0              2.0637968      0              0              49.500597      49.500597      49.500597    
     39000   1.0015639      11.201255      1.5023312      23.349719      20.48897       0              2.0741119      0              0              49.500597      49.500597      49.500597    
     40000   1.0044037      11.44662       1.506591       23.359267      20.486581      0              2.085904       0              0              49.500597      49.500597      49.500597    
     41000   1.0065196      11.620514      1.5097647      23.369154      20.487673      0              2.0963775      0              0              49.500597      49.500597      49.500597    
     42000   1.0004045      11.871989      1.5005922      23.390352      20.49391       0              2.1137185      0              0              49.500597      49.500597      49.500597    
     43000   1.0029837      12.015198      1.504461       23.398733      20.489784      0              2.127916       0              0              49.500597      49.500597      49.500597    
     44000   1.0009629      12.305438      1.5014298      23.412142      20.496976      0              2.1366022      0              0              49.500597      49.500597      49.500597    
     45000   1.0016239      12.401676      1.5024213      23.421125      20.494613      0              2.1484594      0              0              49.500597      49.500597      49.500597    
     46000   1.0049726      12.629359      1.5074442      23.427211      20.49685       0              2.1549175      0              0              49.500597      49.500597      49.500597    
     47000   1.001052       12.832708      1.5015635      23.444979      20.498339      0              2.1710921      0              0              49.500597      49.500597      49.500597    
     48000   1.0015808      13.101094      1.5023566      23.455208      20.506415      0              2.173084       0              0              49.500597      49.500597      49.500597    
     49000   1.0015657      13.280205      1.502334       23.464792      20.505395      0              2.1839511      0              0              49.500597      49.500597      49.500597    
     50000   1.0035581      13.409292      1.5053225      23.47243       20.500723      0              2.1971709      0              0              49.500597      49.500597      49.500597    
     51000   1.0028558      13.65545       1.5042692      23.485467      20.504678      0              2.2056098      0              0              49.500597      49.500597      49.500597    
     52000   1.0012886      13.871562      1.5019184      23.501024      20.508193      0              2.2180233      0              0              49.500597      49.500597      49.500597    
     53000   0.99865451     14.014766      1.4979672      23.518133      20.507376      0              2.2367712      0              0              49.500597      49.500597      49.500597    
     54000   1.0030331      14.247628      1.5045351      23.523943      20.509315      0              2.241584       0              0              49.500597      49.500597      49.500597    
     55000   1.0034774      14.415763      1.5052014      23.530859      20.509943      0              2.2506823      0              0              49.500597      49.500597      49.500597    
     56000   1.0018131      14.578852      1.5027051      23.540234      20.513951      0              2.2565587      0              0              49.500597      49.500597      49.500597    
     57000   1.0005676      14.768932      1.5008368      23.548716      20.510056      0              2.2683216      0              0              49.500597      49.500597      49.500597    
     58000   1.0027315      14.928759      1.5040827      23.552763      20.515304      0              2.2690144      0              0              49.500597      49.500597      49.500597    
     59000   1.0000517      15.173204      1.500063       23.564883      20.515657      0              2.2812227      0              0              49.500597      49.500597      49.500597    
     60000   1.0015783      15.342432      1.5023529      23.572689      20.519413      0              2.2855806      0              0              49.500597      49.500597      49.500597    
     61000   1.0009127      15.485318      1.5013545      23.582015      20.516489      0              2.297927       0              0              49.500597      49.500597      49.500597    
     62000   1.0034602      15.723827      1.5051757      23.586915      20.518414      0              2.3015915      0              0              49.500597      49.500597      49.500597    
     63000   0.99981415     15.864617      1.4997067      23.60371       20.522982      0              2.3145968      0              0              49.500597      49.500597      49.500597    
     64000   1.0043287      16.014579      1.5064785      23.607393      20.52105       0              2.3204999      0              0              49.500597      49.500597      49.500597    
     65000   1.002725       16.227836      1.5040729      23.618416      20.524743      0              2.3280714      0              0              49.500597      49.500597      49.500597    
     66000   1.0037105      16.438445      1.5055511      23.625663      20.526745      0              2.3350442      0              0              49.500597      49.500597      49.500597    
     67000   0.99850392     16.604181      1.4977414      23.641008      20.531109      0              2.3449629      0              0              49.500597      49.500597      49.500597    
     68000   0.99953992     16.73618       1.4992953      23.648232      20.526584      0              2.3554452      0              0              49.500597      49.500597      49.500597    
     69000   1.0002899      16.933568      1.5004204      23.659207      20.532159      0              2.3614366      0              0              49.500597      49.500597      49.500597    
     70000   1.0028131      17.035315      1.5042051      23.665066      20.531155      0              2.3677886      0              0              49.500597      49.500597      49.500597    
     71000   1.0022726      17.23186       1.5033943      23.671056      20.536418      0              2.3693072      0              0              49.500597      49.500597      49.500597    
     72000   1.0009062      17.379208      1.5013447      23.678418      20.534099      0              2.3789189      0              0              49.500597      49.500597      49.500597    
     73000   1.0059719      17.556052      1.5089432      23.678082      20.533558      0              2.3788373      0              0              49.500597      49.500597      49.500597    
     74000   0.99944007     17.715611      1.4991456      23.694732      20.536821      0              2.3933441      0              0              49.500597      49.500597      49.500597    
     75000   0.99827971     17.880034      1.497405       23.704785      20.539661      0              2.4013676      0              0              49.500597      49.500597      49.500597    
     76000   1.0034587      17.993058      1.5051734      23.704957      20.535534      0              2.4046958      0              0              49.500597      49.500597      49.500597    
     77000   0.99896352     18.210034      1.4984307      23.718849      20.544944      0              2.4096134      0              0              49.500597      49.500597      49.500597    
     78000   0.99926151     18.342404      1.4988777      23.724651      20.543684      0              2.4170623      0              0              49.500597      49.500597      49.500597    
     79000   0.99985274     18.576736      1.4997646      23.732742      20.550741      0              2.4186972      0              0              49.500597      49.500597      49.500597    
     80000   1.0016371      18.686666      1.5024411      23.740098      20.544758      0              2.4305279      0              0              49.500597      49.500597      49.500597    
     81000   0.99759054     18.883161      1.4963713      23.756899      20.554892      0              2.4390905      0              0              49.500597      49.500597      49.500597    
     82000   1.0006321      19.06856       1.5009336      23.761471      20.555461      0              2.4432019      0              0              49.500597      49.500597      49.500597    
     83000   1.0014978      19.152967      1.5022322      23.766065      20.553735      0              2.4489441      0              0              49.500597      49.500597      49.500597    
     84000   1.000891       19.352992      1.501322       23.772296      20.556934      0              2.4535927      0              0              49.500597      49.500597      49.500597    
     85000   0.99890768     19.529463      1.498347       23.782327      20.560659      0              2.459062       0              0              49.500597      49.500597      49.500597    
     86000   1.0017276      19.64971       1.5025768      23.786191      20.562138      0              2.4618064      0              0              49.500597      49.500597      49.500597    
     87000   0.99497657     19.804411      1.4924504      23.804042      20.561529      0              2.4784782      0              0              49.500597      49.500597      49.500597    
     88000   0.9980363      19.972462      1.4970399      23.806832      20.5593        0              2.4852215      0              0              49.500597      49.500597      49.500597    
     89000   0.99778948     20.116709      1.4966697      23.816039      20.563965      0              2.4879982      0              0              49.500597      49.500597      49.500597    
     90000   0.99904786     20.318652      1.4985573      23.82495       20.565034      0              2.4966787      0              0              49.500597      49.500597      49.500597    
     91000   1.0004113      20.454987      1.5006024      23.833262      20.564781      0              2.5057708      0              0              49.500597      49.500597      49.500597    
     92000   1.0010678      20.617805      1.5015872      23.840683      20.567168      0              2.5114419      0              0              49.500597      49.500597      49.500597    
     93000   0.99721443     20.751114      1.4958071      23.853499      20.573826      0              2.5158668      0              0              49.500597      49.500597      49.500597    
     94000   0.99895977     20.859029      1.4984251      23.858049      20.56896       0              2.5270552      0              0              49.500597      49.500597      49.500597    
     95000   1.0015615      21.082758      1.5023277      23.861945      20.575935      0              2.5241066      0              0              49.500597      49.500597      49.500597    
     96000   0.9999785      21.217089      1.4999532      23.87327       20.573228      0              2.537741       0              0              49.500597      49.500597      49.500597    
     97000   1.0001326      21.391213      1.5001844      23.881212      20.580973      0              2.5375227      0              0              49.500597      49.500597      49.500597    
     98000   1.0015086      21.503606      1.5022484      23.887394      20.57971       0              2.545136       0              0              49.500597      49.500597      49.500597    
     99000   1.0009723      21.654748      1.5014439      23.896877      20.579378      0              2.5541366      0              0              49.500597      49.500597      49.500597    
    100000   1.0021187      21.78103       1.5031635      23.903227      20.581793      0              2.5595294      0              0              49.500597      49.500597      49.500597    
Loop time of 1769.72 on 1 procs for 100000 steps with 103098 atoms

Performance: 4882.137 tau/day, 56.506 timesteps/s, 5.826 Matom-step/s
99.2% CPU use with 1 MPI tasks x no OpenMP threads

MPI task timing breakdown:
Section |  min time  |  avg time  |  max time  |%varavg| %total
---------------------------------------------------------------
Pair    | 1069.8     | 1069.8     | 1069.8     |   0.0 | 60.45
Bond    | 352.5      | 352.5      | 352.5      |   0.0 | 19.92
Neigh   | 152.05     | 152.05     | 152.05     |   0.0 |  8.59
Comm    | 25.221     | 25.221     | 25.221     |   0.0 |  1.43
Output  | 0.30008    | 0.30008    | 0.30008    |   0.0 |  0.02
Modify  | 132.06     | 132.06     | 132.06     |   0.0 |  7.46
Other   |            | 37.75      |            |       |  2.13

Nlocal:         103098 ave      103098 max      103098 min
Histogram: 1 0 0 0 0 0 0 0 0 0
Nghost:          20788 ave       20788 max       20788 min
Histogram: 1 0 0 0 0 0 0 0 0 0
Neighs:         592554 ave      592554 max      592554 min
Histogram: 1 0 0 0 0 0 0 0 0 0

Total # of neighbors = 592554
Ave neighs/atom = 5.747483
Ave special neighs/atom = 1.980601
Neighbor list builds = 3347
Dangerous builds = 0

unfix		softpushoff

undump		dump1


#################Equilibration##################

pair_style 	lj/cut 2.5

pair_modify	shift yes

pair_coeff      * * 1.0 1.0

unfix		fix1

fix		fix2 all npt temp 1.0 1.0 1.0 iso 0 0 100

reset_timestep	0

dump            dump2 all custom 50000 equilibration.dump id mol type q xs ys zs ix iy iz

dump_modify     dump2 sort id #sort per-atom lines by atom ID

run             500000
Generated 0 of 0 mixed pair_coeff terms from geometric mixing rule
Neighbor list info ...
  update: every = 1 steps, delay = 0 steps, check = yes
  max neighbors/atom: 2000, page size: 100000
  master list distance cutoff = 2.8
  ghost atom cutoff = 2.8
  binsize = 1.4, bins = 36 36 36
  1 neighbor lists, perpetual/occasional/extra = 1 0 0
  (1) pair lj/cut, perpetual
      attributes: half, newton on
      pair build: half/bin/newton
      stencil: half/bin/3d
      bin: standard
Per MPI rank memory allocation (min/avg/max) = 77.4 | 77.4 | 77.4 Mbytes
   Step          Temp          Press          KinEng         PotEng         E_bond        E_impro         E_vdwl         E_coul         E_long           Lx             Ly             Lz      
         0   1.0021187      0.47786823     1.5031635      16.665916      20.581793      0             -4.6777816      0              0              49.500597      49.500597      49.500597    
      1000   0.87426831    -1.253068       1.3113897      16.904416      20.483849      0             -4.3308541      0              0              49.494214      49.494214      49.494214    
      2000   0.90279986    -0.91393666     1.3541867      16.928238      20.47011       0             -4.3001848      0              0              49.480223      49.480223      49.480223    
      3000   0.93263091    -0.73986297     1.3989328      16.952092      20.469208      0             -4.2850747      0              0              49.461174      49.461174      49.461174    
      4000   0.95684824    -0.59323838     1.4352584      16.981004      20.479156      0             -4.2743778      0              0              49.439194      49.439194      49.439194    
      5000   0.98161035    -0.59261788     1.4724012      17.001414      20.487621      0             -4.2707766      0              0              49.416528      49.416528      49.416528    
      6000   0.9944546     -0.45875391     1.4916674      17.027489      20.502722      0             -4.2643342      0              0              49.395072      49.395072      49.395072    
      7000   1.0074055     -0.36758681     1.5110936      17.034862      20.508247      0             -4.2675109      0              0              49.375862      49.375862      49.375862    
      8000   1.0099982     -0.34507105     1.5149826      17.031495      20.507388      0             -4.271778       0              0              49.358988      49.358988      49.358988    
      9000   1.000982      -0.3987631      1.5014585      17.022567      20.507118      0             -4.2826283      0              0              49.343857      49.343857      49.343857    
     10000   0.99344631    -0.40357742     1.490155       17.013744      20.500575      0             -4.2862457      0              0              49.329674      49.329674      49.329674    
     11000   0.99999731    -0.46736854     1.4999814      16.999366      20.495828      0             -4.2943143      0              0              49.3159        49.3159        49.3159      
     12000   1.0004655     -0.30556911     1.5006836      17.005181      20.502306      0             -4.2941939      0              0              49.302162      49.302162      49.302162    
     13000   1.0036992     -0.33084725     1.5055342      17.006376      20.502686      0             -4.2948285      0              0              49.288502      49.288502      49.288502    
     14000   1.0040516     -0.33745748     1.5060628      17.001673      20.500289      0             -4.2984615      0              0              49.274959      49.274959      49.274959    
     15000   1.0025404     -0.35614062     1.503796       16.991836      20.496291      0             -4.3046259      0              0              49.26159       49.26159       49.26159     
     16000   0.99898623    -0.3457532      1.4984648      16.987197      20.49949       0             -4.3124917      0              0              49.248385      49.248385      49.248385    
     17000   0.99666657    -0.30879894     1.4949854      16.989463      20.495541      0             -4.3075772      0              0              49.235351      49.235351      49.235351    
     18000   0.99935873    -0.33502612     1.4990236      16.990818      20.499915      0             -4.3125344      0              0              49.222582      49.222582      49.222582    
     19000   1.0036676     -0.2933984      1.5054867      16.98735       20.503792      0             -4.3175496      0              0              49.210201      49.210201      49.210201    
     20000   1.0005552     -0.24832913     1.5008183      16.986186      20.501526      0             -4.3175812      0              0              49.19827       49.19827       49.19827     
     21000   1.0003675     -0.31213959     1.5005367      16.973771      20.497399      0             -4.3246839      0              0              49.186854      49.186854      49.186854    
     22000   0.9974142     -0.33019309     1.4961068      16.966658      20.498007      0             -4.3340841      0              0              49.17583       49.17583       49.17583     
     23000   0.99787274    -0.3149663      1.4967946      16.964531      20.497169      0             -4.3335647      0              0              49.165112      49.165112      49.165112    
     24000   1.0003752     -0.24169764     1.5005483      16.968024      20.503194      0             -4.3384206      0              0              49.154737      49.154737      49.154737    
     25000   1.0047236     -0.27507701     1.5070708      16.96768       20.500372      0             -4.3357246      0              0              49.144719      49.144719      49.144719    
     26000   1.0012089     -0.20200091     1.5017988      16.966928      20.501683      0             -4.3351149      0              0              49.135143      49.135143      49.135143    
     27000   1.000507      -0.21157262     1.5007459      16.953041      20.49821       0             -4.345462       0              0              49.125976      49.125976      49.125976    
     28000   0.99520257    -0.23797518     1.4927894      16.949712      20.497546      0             -4.3481131      0              0              49.11701       49.11701       49.11701     
     29000   0.99793899    -0.21310348     1.496894       16.947941      20.498125      0             -4.3503288      0              0              49.108204      49.108204      49.108204    
     30000   1.0028429     -0.21870252     1.5042498      16.947677      20.502215      0             -4.3544482      0              0              49.099566      49.099566      49.099566    
     31000   1.0030933     -0.21439958     1.5046254      16.948153      20.502359      0             -4.3539656      0              0              49.091092      49.091092      49.091092    
     32000   0.99950056    -0.14122048     1.4992363      16.946383      20.500477      0             -4.3554512      0              0              49.082834      49.082834      49.082834    
     33000   0.99886355    -0.19794282     1.4982808      16.939653      20.498749      0             -4.361361       0              0              49.074814      49.074814      49.074814    
     34000   0.99999599    -0.16450123     1.4999794      16.933284      20.500944      0             -4.3673295      0              0              49.066977      49.066977      49.066977    
     35000   0.99857694    -0.15922225     1.4978509      16.934702      20.500202      0             -4.3653035      0              0              49.059274      49.059274      49.059274    
     36000   1.0002501     -0.22136904     1.5003605      16.933633      20.497657      0             -4.3639338      0              0              49.051682      49.051682      49.051682    
     37000   0.99997842    -0.19273341     1.4999531      16.933559      20.501337      0             -4.3676935      0              0              49.044249      49.044249      49.044249    
     38000   0.99988326    -0.21271127     1.4998103      16.930435      20.501829      0             -4.3719561      0              0              49.036994      49.036994      49.036994    
     39000   1.0017478     -0.2145131      1.5026072      16.92211       20.49863       0             -4.3764834      0              0              49.029904      49.029904      49.029904    
     40000   1.0003416     -0.19475515     1.5004979      16.919289      20.499403      0             -4.3800328      0              0              49.022937      49.022937      49.022937    
     41000   0.99923609    -0.19863876     1.4988396      16.918908      20.500834      0             -4.3819398      0              0              49.016032      49.016032      49.016032    
     42000   0.99915183    -0.12824293     1.4987132      16.920691      20.499696      0             -4.379882       0              0              49.009219      49.009219      49.009219    
     43000   0.99981893    -0.15121283     1.4997139      16.921149      20.50312       0             -4.3832933      0              0              49.002602      49.002602      49.002602    
     44000   1.0017058     -0.094474841    1.5025441      16.915984      20.501439      0             -4.3873215      0              0              48.996146      48.996146      48.996146    
     45000   0.99976088    -0.12779902     1.4996268      16.913832      20.501254      0             -4.388211       0              0              48.989822      48.989822      48.989822    
     46000   0.99844575    -0.18170442     1.4976541      16.911979      20.498265      0             -4.3898276      0              0              48.98361       48.98361       48.98361     
     47000   0.99933026    -0.15179106     1.4989808      16.91101       20.501375      0             -4.3919414      0              0              48.97757       48.97757       48.97757     
     48000   1.001066      -0.16396767     1.5015844      16.909282      20.500015      0             -4.390287       0              0              48.97166       48.97166       48.97166     
     49000   1.0001503     -0.14022534     1.5002108      16.909853      20.50315       0             -4.3953301      0              0              48.965876      48.965876      48.965876    
     50000   1.0009853     -0.059230568    1.5014634      16.905235      20.499446      0             -4.3950839      0              0              48.96021       48.96021       48.96021     
     51000   0.99897062    -0.15763921     1.4984414      16.905479      20.500556      0             -4.3975285      0              0              48.954725      48.954725      48.954725    
     52000   1.0019467     -0.10574807     1.5029055      16.900145      20.49989       0             -4.3992122      0              0              48.949408      48.949408      48.949408    
     53000   1.0016776     -0.055568858    1.5025018      16.898314      20.498589      0             -4.4003088      0              0              48.944244      48.944244      48.944244    
     54000   0.99964157    -0.098620014    1.4994478      16.898171      20.499252      0             -4.4034207      0              0              48.939229      48.939229      48.939229    
     55000   0.99813415    -0.10800213     1.4971867      16.898385      20.499263      0             -4.4005961      0              0              48.934349      48.934349      48.934349    
     56000   1.0000138     -0.016101216    1.5000061      16.895572      20.499349      0             -4.4043356      0              0              48.929561      48.929561      48.929561    
     57000   1.0000971     -0.035804259    1.5001311      16.896124      20.497227      0             -4.4040683      0              0              48.924906      48.924906      48.924906    
     58000   1.0022267     -0.081805831    1.5033254      16.891465      20.497598      0             -4.4085025      0              0              48.920408      48.920408      48.920408    
     59000   1.0005263     -0.049095104    1.5007748      16.889979      20.497742      0             -4.4099932      0              0              48.916071      48.916071      48.916071    
     60000   0.99833473    -0.098254203    1.4974876      16.891792      20.498112      0             -4.4094181      0              0              48.91194       48.91194       48.91194     
     61000   1.0013714     -0.079115482    1.5020425      16.889672      20.495829      0             -4.4086226      0              0              48.907991      48.907991      48.907991    
     62000   1.0001417     -0.035554971    1.500198       16.893048      20.500381      0             -4.4079711      0              0              48.904126      48.904126      48.904126    
     63000   1.0038887     -0.074261332    1.5058185      16.88325       20.498318      0             -4.4164067      0              0              48.900387      48.900387      48.900387    
     64000   1.0006054     -0.1113468      1.5008936      16.881576      20.496006      0             -4.4168279      0              0              48.896766      48.896766      48.896766    
     65000   0.99734164    -0.066887538    1.4959979      16.88418       20.502346      0             -4.4195625      0              0              48.893217      48.893217      48.893217    
     66000   0.99816094    -0.061875567    1.4972269      16.88391       20.498085      0             -4.4133373      0              0              48.889747      48.889747      48.889747    
     67000   1.000044      -0.049856913    1.5000515      16.882582      20.499803      0             -4.4174111      0              0              48.886409      48.886409      48.886409    
     68000   1.0004613     -0.061261112    1.5006774      16.881662      20.499304      0             -4.4170742      0              0              48.883181      48.883181      48.883181    
     69000   0.99896358    -0.020601315    1.4984308      16.879816      20.496694      0             -4.4170466      0              0              48.880047      48.880047      48.880047    
     70000   0.99839239    -0.010218029    1.4975741      16.877331      20.498921      0             -4.4200661      0              0              48.877001      48.877001      48.877001    
     71000   0.99659759    -0.058480443    1.4948819      16.879967      20.502358      0             -4.421614       0              0              48.874011      48.874011      48.874011    
     72000   1.0024655     -0.031165528    1.5036837      16.873808      20.496721      0             -4.421138       0              0              48.871064      48.871064      48.871064    
     73000   0.99879187    -0.017447314    1.4981733      16.880714      20.498465      0             -4.4187911      0              0              48.868226      48.868226      48.868226    
     74000   1.0047408     -0.021456193    1.5070965      16.871511      20.493457      0             -4.4235282      0              0              48.865496      48.865496      48.865496    
     75000   1.0016185     -0.021416159    1.5024132      16.872844      20.498787      0             -4.4253236      0              0              48.862926      48.862926      48.862926    
     76000   0.99743727    -0.016941746    1.4961414      16.87412       20.499943      0             -4.4260506      0              0              48.860455      48.860455      48.860455    
     77000   0.99697448    -0.037811399    1.4954472      16.872702      20.499439      0             -4.4260213      0              0              48.858084      48.858084      48.858084    
     78000   1.0008652     -0.047147838    1.5012833      16.869978      20.496701      0             -4.4281358      0              0              48.85583       48.85583       48.85583     
     79000   1.0003121     -0.014175162    1.5004536      16.875568      20.496815      0             -4.4203857      0              0              48.85367       48.85367       48.85367     
     80000   1.0008669     -0.016486276    1.5012858      16.876107      20.500248      0             -4.4253252      0              0              48.85162       48.85162       48.85162     
     81000   0.99886782    -0.016293488    1.4982872      16.8714        20.499376      0             -4.427912       0              0              48.849635      48.849635      48.849635    
     82000   0.99867119    -0.013727902    1.4979923      16.865409      20.497169      0             -4.4311918      0              0              48.847689      48.847689      48.847689    
     83000   1.0004398     -0.079647988    1.5006451      16.865068      20.497899      0             -4.4328293      0              0              48.845748      48.845748      48.845748    
     84000   0.99979533    -0.023671099    1.4996784      16.871035      20.496743      0             -4.4276155      0              0              48.843792      48.843792      48.843792    
     85000   1.0011556      0.004964351    1.5017188      16.873777      20.499164      0             -4.4247744      0              0              48.841994      48.841994      48.841994    
     86000   1.0018632      0.048715562    1.5027802      16.868496      20.497997      0             -4.4279471      0              0              48.840339      48.840339      48.840339    
     87000   0.99655692    -0.04126045     1.4948209      16.86602       20.497779      0             -4.4324597      0              0              48.83882       48.83882       48.83882     
     88000   0.9977377     -0.010689331    1.496592       16.865765      20.497343      0             -4.4312413      0              0              48.837356      48.837356      48.837356    
     89000   1.0001419      0.026377116    1.5001983      16.868852      20.500105      0             -4.4301879      0              0              48.835954      48.835954      48.835954    
     90000   0.99972625    -0.040718328    1.4995748      16.872118      20.501021      0             -4.4316138      0              0              48.834685      48.834685      48.834685    
     91000   1.0004909     -0.026818098    1.5007218      16.867798      20.501778      0             -4.4334854      0              0              48.833503      48.833503      48.833503    
     92000   0.99480265     0.036669059    1.4921895      16.866553      20.500468      0             -4.435429       0              0              48.832366      48.832366      48.832366    
     93000   0.99712496     0.040453354    1.4956729      16.864036      20.493813      0             -4.4298066      0              0              48.83127       48.83127       48.83127     
     94000   1.0035349     -0.011421341    1.5052878      16.859083      20.494487      0             -4.4362507      0              0              48.830294      48.830294      48.830294    
     95000   1.0007845      0.024068451    1.5011621      16.865757      20.498319      0             -4.4325952      0              0              48.829405      48.829405      48.829405    
     96000   1.0015657      0.037356033    1.502334       16.864621      20.500241      0             -4.4359858      0              0              48.828647      48.828647      48.828647    
     97000   0.9994343     -0.013881655    1.4991369      16.866294      20.501882      0             -4.4358934      0              0              48.827933      48.827933      48.827933    
     98000   1.0027937      0.027724124    1.5041759      16.860439      20.497512      0             -4.4369495      0              0              48.827252      48.827252      48.827252    
     99000   1.0008556     -0.062672316    1.5012688      16.860374      20.498563      0             -4.4373301      0              0              48.826588      48.826588      48.826588    
    100000   0.9967136     -0.019925155    1.4950559      16.864298      20.498627      0             -4.4345768      0              0              48.825969      48.825969      48.825969    
    101000   0.99837602     0.02310129     1.4975495      16.862836      20.499962      0             -4.4368919      0              0              48.825397      48.825397      48.825397    
    102000   1.0013842     -0.0043124162   1.5020617      16.865083      20.502441      0             -4.4359798      0              0              48.824881      48.824881      48.824881    
    103000   1.0046533      0.030172125    1.5069653      16.862499      20.50037       0             -4.4350177      0              0              48.824439      48.824439      48.824439    
    104000   0.99587913    -0.034009507    1.4938042      16.867445      20.50344       0             -4.4333356      0              0              48.824084      48.824084      48.824084    
    105000   0.99859007    -0.0054834187   1.4978706      16.85824       20.500196      0             -4.4394175      0              0              48.823793      48.823793      48.823793    
    106000   0.99916308    -0.017044042    1.4987301      16.858611      20.500938      0             -4.4396431      0              0              48.823482      48.823482      48.823482    
    107000   0.99913389     0.0072973315   1.4986863      16.862545      20.503618      0             -4.4376778      0              0              48.823147      48.823147      48.823147    
    108000   1.0004329      0.068801347    1.5006348      16.864691      20.499334      0             -4.4331135      0              0              48.822835      48.822835      48.822835    
    109000   1.0020075      0.04234875     1.5029966      16.868478      20.503185      0             -4.4349027      0              0              48.822654      48.822654      48.822654    
    110000   1.0037903      0.056868482    1.5056709      16.862437      20.50262       0             -4.4364691      0              0              48.822583      48.822583      48.822583    
    111000   0.99976703     0.001305801    1.499636       16.85871       20.496939      0             -4.4336718      0              0              48.822629      48.822629      48.822629    
    112000   0.99568321     0.014508339    1.4935103      16.863499      20.500828      0             -4.4346185      0              0              48.822711      48.822711      48.822711    
    113000   1.0010149     -0.0050435221   1.5015078      16.858572      20.499993      0             -4.4371885      0              0              48.822753      48.822753      48.822753    
    114000   1.0022814      0.028865481    1.5034075      16.860114      20.499678      0             -4.4351195      0              0              48.822763      48.822763      48.822763    
    115000   1.0039054      0.054497088    1.5058435      16.8595        20.501082      0             -4.4396216      0              0              48.822801      48.822801      48.822801    
    116000   1.0016813      0.014557281    1.5025073      16.859253      20.498697      0             -4.4398681      0              0              48.822898      48.822898      48.822898    
    117000   0.9969528     -0.0089359043   1.4954147      16.85996       20.498916      0             -4.4374859      0              0              48.823019      48.823019      48.823019    
    118000   1.0003366     -0.0034359014   1.5004903      16.8546        20.495215      0             -4.4394062      0              0              48.823099      48.823099      48.823099    
    119000   1.0021219     -0.016949371    1.5031683      16.861106      20.495934      0             -4.4344088      0              0              48.823181      48.823181      48.823181    
    120000   1.000197       0.030798946    1.500281       16.867526      20.502225      0             -4.4338264      0              0              48.823413      48.823413      48.823413    
    121000   1.0005799     -0.056360703    1.5008552      16.863666      20.49999       0             -4.4353941      0              0              48.823737      48.823737      48.823737    
    122000   0.99952904     0.017365341    1.499279       16.861211      20.497989      0             -4.4364546      0              0              48.824024      48.824024      48.824024    
    123000   0.99944739    -0.016349418    1.4991565      16.861072      20.501167      0             -4.4384078      0              0              48.824275      48.824275      48.824275    
    124000   0.99876005    -0.0090947097   1.4981255      16.863177      20.500806      0             -4.4360186      0              0              48.82444       48.82444       48.82444     
    125000   1.0014         0.053391307    1.5020854      16.860112      20.500431      0             -4.4371262      0              0              48.824568      48.824568      48.824568    
    126000   0.99963254     0.047045985    1.4994343      16.858769      20.498085      0             -4.4352926      0              0              48.824681      48.824681      48.824681    
    127000   0.99825831    -0.032748884    1.4973729      16.85623       20.497394      0             -4.4388929      0              0              48.824734      48.824734      48.824734    
    128000   0.99644712    -0.062584355    1.4946562      16.859597      20.498988      0             -4.4385875      0              0              48.824664      48.824664      48.824664    
    129000   1.0009825     -0.027270272    1.5014592      16.862398      20.499011      0             -4.4360657      0              0              48.824509      48.824509      48.824509    
    130000   1.0000517      0.0047226772   1.500063       16.865551      20.501225      0             -4.4313609      0              0              48.824385      48.824385      48.824385    
    131000   1.0022528      0.0054187344   1.5033647      16.857109      20.500027      0             -4.4378204      0              0              48.824326      48.824326      48.824326    
    132000   0.99995125    -0.020707726    1.4999123      16.855645      20.495309      0             -4.4357968      0              0              48.824233      48.824233      48.824233    
    133000   0.99888594    -0.014451096    1.4983144      16.856907      20.497765      0             -4.4376604      0              0              48.824145      48.824145      48.824145    
    134000   0.99922723     0.016548464    1.4988263      16.859967      20.497581      0             -4.4349547      0              0              48.824065      48.824065      48.824065    
    135000   1.0033303     -0.023910319    1.5049808      16.857251      20.49684       0             -4.4388748      0              0              48.823982      48.823982      48.823982    
    136000   0.99941529     0.061014967    1.4991084      16.863534      20.498526      0             -4.433977       0              0              48.823925      48.823925      48.823925    
    137000   1.0020333     -0.023593212    1.5030354      16.858659      20.497002      0             -4.4367853      0              0              48.823918      48.823918      48.823918    
    138000   1.0039431      0.020328605    1.5059001      16.853575      20.493671      0             -4.4370617      0              0              48.824033      48.824033      48.824033    
    139000   0.9972539     -0.0098201621   1.4958663      16.859346      20.498109      0             -4.4355157      0              0              48.82418       48.82418       48.82418     
    140000   0.99731632    -0.040040948    1.49596        16.856703      20.498271      0             -4.4400482      0              0              48.824333      48.824333      48.824333    
    141000   0.99938728     0.038738239    1.4990664      16.859666      20.49937       0             -4.4361487      0              0              48.82443       48.82443       48.82443     
    142000   1.0000251      0.027450886    1.5000231      16.864707      20.502625      0             -4.4358467      0              0              48.824522      48.824522      48.824522    
    143000   1.0004989     -0.018106683    1.5007338      16.862059      20.500714      0             -4.4346735      0              0              48.824634      48.824634      48.824634    
    144000   0.99688582     0.0011015027   1.4953142      16.860987      20.502324      0             -4.4384087      0              0              48.824745      48.824745      48.824745    
    145000   0.99855606    -0.047695471    1.4978196      16.852833      20.495318      0             -4.4395381      0              0              48.824748      48.824748      48.824748    
    146000   0.99836284    -0.029899163    1.4975297      16.850896      20.496455      0             -4.4426632      0              0              48.824609      48.824609      48.824609    
    147000   0.99860132     0.01558376     1.4978875      16.859814      20.498648      0             -4.4376639      0              0              48.824293      48.824293      48.824293    
    148000   1.0005966     -0.052488303    1.5008803      16.863649      20.503884      0             -4.4386496      0              0              48.823926      48.823926      48.823926    
    149000   1.0019592      0.00999844     1.5029242      16.862229      20.501482      0             -4.4364465      0              0              48.823546      48.823546      48.823546    
    150000   1.0016052      0.046509957    1.5023932      16.855113      20.496834      0             -4.4374968      0              0              48.823193      48.823193      48.823193    
    151000   0.9939715      0.019638373    1.4909428      16.86136       20.498151      0             -4.4334597      0              0              48.822878      48.822878      48.822878    
    152000   0.99659487     0.0064618462   1.4948778      16.860077      20.501732      0             -4.4401737      0              0              48.822581      48.822581      48.822581    
    153000   0.99780973    -0.039107908    1.4967001      16.86267       20.499241      0             -4.4344259      0              0              48.822275      48.822275      48.822275    
    154000   1.0012463      0.026820032    1.5018549      16.859216      20.496889      0             -4.4348187      0              0              48.821978      48.821978      48.821978    
    155000   1.0000411      0.021974598    1.5000472      16.860645      20.500204      0             -4.4362835      0              0              48.821757      48.821757      48.821757    
    156000   0.99732327     0.026984853    1.4959704      16.864077      20.501487      0             -4.4348149      0              0              48.821595      48.821595      48.821595    
    157000   1.0027596     -0.015390694    1.5041249      16.854703      20.499469      0             -4.441576       0              0              48.821483      48.821483      48.821483    
    158000   0.99958827    -0.033050727    1.4993679      16.858249      20.498346      0             -4.4365632      0              0              48.821395      48.821395      48.821395    
    159000   0.99991726     0.018576588    1.4998613      16.856431      20.499221      0             -4.4399805      0              0              48.821319      48.821319      48.821319    
    160000   0.99441213     0.053759409    1.4916037      16.861562      20.500346      0             -4.435657       0              0              48.821299      48.821299      48.821299    
    161000   0.99906478     0.054844437    1.4985826      16.855964      20.494034      0             -4.4357529      0              0              48.821364      48.821364      48.821364    
    162000   0.99929919     0.044215198    1.4989342      16.863425      20.501689      0             -4.4350242      0              0              48.82147       48.82147       48.82147     
    163000   1.0000798      0.00013003599  1.5001052      16.86396       20.501558      0             -4.4356498      0              0              48.821623      48.821623      48.821623    
    164000   0.99990222    -0.0015595848   1.4998388      16.860065      20.500849      0             -4.4399095      0              0              48.821847      48.821847      48.821847    
    165000   0.99578432     0.013560064    1.493662       16.857614      20.500638      0             -4.4398892      0              0              48.822077      48.822077      48.822077    
    166000   0.99709098    -0.049745901    1.495622       16.853413      20.49821       0             -4.4419605      0              0              48.822245      48.822245      48.822245    
    167000   1.0006231      0.055717453    1.5009201      16.861544      20.499349      0             -4.4350802      0              0              48.822313      48.822313      48.822313    
    168000   1.0016267     -0.011205189    1.5024255      16.862248      20.498581      0             -4.4351914      0              0              48.82249       48.82249       48.82249     
    169000   1.0035017      0.008691637    1.5052379      16.8562        20.497006      0             -4.4379946      0              0              48.822758      48.822758      48.822758    
    170000   1.0011106      0.019524007    1.5016513      16.853331      20.496951      0             -4.4369556      0              0              48.823088      48.823088      48.823088    
    171000   0.99877346    -0.019157989    1.4981457      16.853748      20.49326       0             -4.4369317      0              0              48.823425      48.823425      48.823425    
    172000   1.0005733      0.041001382    1.5008454      16.857548      20.494322      0             -4.4349406      0              0              48.823765      48.823765      48.823765    
    173000   1.0038099     -0.0017188007   1.5057003      16.858873      20.50052       0             -4.4393662      0              0              48.824184      48.824184      48.824184    
    174000   0.99933234    -0.029016408    1.498984       16.864249      20.499376      0             -4.4343687      0              0              48.824682      48.824682      48.824682    
    175000   1.0022398     -0.037068556    1.5033452      16.856004      20.49487       0             -4.4379529      0              0              48.825185      48.825185      48.825185    
    176000   0.99970446    -0.078142081    1.4995421      16.855367      20.49691       0             -4.4383662      0              0              48.825654      48.825654      48.825654    
    177000   0.99804707    -0.023644383    1.4970561      16.856835      20.497349      0             -4.4369691      0              0              48.826055      48.826055      48.826055    
    178000   1.0040469      0.0016486894   1.5060557      16.857952      20.497559      0             -4.4344986      0              0              48.826339      48.826339      48.826339    
    179000   1.0043558     -0.026882777    1.5065191      16.859995      20.502124      0             -4.4373347      0              0              48.826642      48.826642      48.826642    
    180000   1.002369      -0.0099079166   1.503539       16.855511      20.496234      0             -4.4370869      0              0              48.826964      48.826964      48.826964    
    181000   0.99809731    -0.072240218    1.4971314      16.857594      20.500387      0             -4.440138       0              0              48.82723       48.82723       48.82723     
    182000   0.99696721     0.023314221    1.4954363      16.860604      20.500607      0             -4.4341439      0              0              48.827404      48.827404      48.827404    
    183000   0.99848307     0.031473286    1.4977101      16.863175      20.497413      0             -4.429568       0              0              48.827569      48.827569      48.827569    
    184000   1.0024176      0.036486571    1.5036118      16.865707      20.500634      0             -4.4271516      0              0              48.827766      48.827766      48.827766    
    185000   1.0058518      0.0055067086   1.5087631      16.864824      20.50418       0             -4.4333358      0              0              48.828089      48.828089      48.828089    
    186000   1.0001719      0.0058321329   1.5002434      16.861268      20.501386      0             -4.434703       0              0              48.828481      48.828481      48.828481    
    187000   0.99898033    -0.0055437222   1.498456       16.857444      20.500256      0             -4.4368084      0              0              48.82895       48.82895       48.82895     
    188000   0.99985712    -0.058434902    1.4997711      16.853834      20.497477      0             -4.4381004      0              0              48.829381      48.829381      48.829381    
    189000   0.99751071     0.0051023945   1.4962516      16.859847      20.497477      0             -4.4322462      0              0              48.829683      48.829683      48.829683    
    190000   0.99927984     0.026296779    1.4989052      16.864121      20.500068      0             -4.4334932      0              0              48.829882      48.829882      48.829882    
    191000   1.0017304     -0.032670633    1.5025811      16.864599      20.500538      0             -4.4341581      0              0              48.830084      48.830084      48.830084    
    192000   1.0015621      0.019005584    1.5023285      16.862285      20.498433      0             -4.4326791      0              0              48.830346      48.830346      48.830346    
    193000   0.9980599     -0.025473691    1.4970753      16.855425      20.497282      0             -4.4363448      0              0              48.830637      48.830637      48.830637    
    194000   0.99882806    -0.027199685    1.4982276      16.854266      20.494848      0             -4.4339193      0              0              48.830864      48.830864      48.830864    
    195000   1.0018775     -0.058509169    1.5028017      16.854686      20.497689      0             -4.4370111      0              0              48.830978      48.830978      48.830978    
    196000   1.0025472     -0.050465032    1.5038063      16.858841      20.49928       0             -4.4354451      0              0              48.830973      48.830973      48.830973    
    197000   1.0030315     -0.0079043216   1.5045326      16.860472      20.500138      0             -4.4344693      0              0              48.83093       48.83093       48.83093     
    198000   1.0020266     -0.033061469    1.5030253      16.858718      20.499         0             -4.4351201      0              0              48.830893      48.830893      48.830893    
    199000   0.99915097     0.0083218053   1.4987119      16.855215      20.499795      0             -4.4395188      0              0              48.830828      48.830828      48.830828    
    200000   0.99622713     0.014590948    1.4943262      16.857627      20.498875      0             -4.4356055      0              0              48.830683      48.830683      48.830683    
    201000   1.0004171      0.01556463     1.500611       16.858015      20.496075      0             -4.4337114      0              0              48.830464      48.830464      48.830464    
    202000   1.0014318     -0.01526223     1.5021331      16.861978      20.501119      0             -4.4351542      0              0              48.830198      48.830198      48.830198    
    203000   1.0000324     -0.018624983    1.5000341      16.863199      20.500319      0             -4.4330741      0              0              48.829949      48.829949      48.829949    
    204000   0.99830071    -0.04358149     1.4974365      16.863229      20.499891      0             -4.4330499      0              0              48.829671      48.829671      48.829671    
    205000   1.0002498      0.030438216    1.5003602      16.859379      20.496122      0             -4.4319602      0              0              48.829361      48.829361      48.829361    
    206000   0.99880005    -0.004565748    1.4981855      16.860309      20.499274      0             -4.4345045      0              0              48.829032      48.829032      48.829032    
    207000   0.99714206     0.0079140961   1.4956986      16.859034      20.501325      0             -4.4384579      0              0              48.828679      48.828679      48.828679    
    208000   0.9912703      0.022004694    1.486891       16.862158      20.498547      0             -4.432314       0              0              48.828256      48.828256      48.828256    
    209000   0.99883451    -0.0050904781   1.4982372      16.856848      20.499076      0             -4.4369821      0              0              48.827777      48.827777      48.827777    
    210000   1.0021344     -0.017034993    1.5031871      16.858498      20.500312      0             -4.4366895      0              0              48.827253      48.827253      48.827253    
    211000   1.0016294      0.029214793    1.5024296      16.860028      20.501909      0             -4.4366323      0              0              48.826731      48.826731      48.826731    
    212000   0.99894301     0.0094272719   1.4984         16.857557      20.497475      0             -4.4337483      0              0              48.826237      48.826237      48.826237    
    213000   0.9992866     -0.0058593839   1.4989154      16.851995      20.500722      0             -4.4403083      0              0              48.825764      48.825764      48.825764    
    214000   1.002405      -0.072050116    1.503593       16.848561      20.495014      0             -4.4391203      0              0              48.825274      48.825274      48.825274    
    215000   0.99951888    -0.020493097    1.4992638      16.854522      20.500669      0             -4.4395518      0              0              48.8247        48.8247        48.8247      
    216000   1.0012708     -0.017666616    1.5018917      16.854435      20.499745      0             -4.4388722      0              0              48.824094      48.824094      48.824094    
    217000   1.0038841     -0.041066011    1.5058115      16.851356      20.499289      0             -4.4403399      0              0              48.8235        48.8235        48.8235      
    218000   0.99994346    -0.024380361    1.4999006      16.852203      20.498224      0             -4.4402891      0              0              48.822946      48.822946      48.822946    
    219000   0.99859983    -0.008979386    1.4978852      16.848761      20.497651      0             -4.442622       0              0              48.822385      48.822385      48.822385    
    220000   1.0000313      0.015015648    1.5000324      16.851193      20.49666       0             -4.4384021      0              0              48.821873      48.821873      48.821873    
    221000   1.0002726      0.0077402954   1.5003943      16.858391      20.500338      0             -4.4376135      0              0              48.821421      48.821421      48.821421    
    222000   1.0002831      0.0055515835   1.5004102      16.858853      20.502413      0             -4.4364464      0              0              48.821044      48.821044      48.821044    
    223000   1.0017802     -0.032710017    1.5026557      16.852868      20.499877      0             -4.4416947      0              0              48.820756      48.820756      48.820756    
    224000   0.9969022      0.00088151156  1.4953388      16.855138      20.496755      0             -4.4369834      0              0              48.820522      48.820522      48.820522    
    225000   0.99572481    -0.0066601762   1.4935727      16.849522      20.497218      0             -4.443237       0              0              48.820289      48.820289      48.820289    
    226000   0.99690881     0.010979566    1.4953487      16.851672      20.496079      0             -4.4383684      0              0              48.82          48.82          48.82        
    227000   0.99871584     0.03901263     1.4980592      16.85789       20.500846      0             -4.4351177      0              0              48.819713      48.819713      48.819713    
    228000   1.00066        0.062491485    1.5009754      16.855642      20.499235      0             -4.4388534      0              0              48.819507      48.819507      48.819507    
    229000   1.0014418      0.011527785    1.5021482      16.8534        20.501507      0             -4.4414504      0              0              48.819367      48.819367      48.819367    
    230000   0.99752263    -0.036897883    1.4962694      16.85672       20.500039      0             -4.4390864      0              0              48.819225      48.819225      48.819225    
    231000   0.99583002     0.0029442624   1.4937305      16.856029      20.498091      0             -4.4357896      0              0              48.819049      48.819049      48.819049    
    232000   0.99758586    -0.0072204561   1.4963643      16.855464      20.499999      0             -4.4389721      0              0              48.818827      48.818827      48.818827    
    233000   1.0004312     -0.0056685487   1.5006323      16.860039      20.502994      0             -4.4377298      0              0              48.818536      48.818536      48.818536    
    234000   1.0017361     -0.0024589681   1.5025896      16.859867      20.502376      0             -4.437633       0              0              48.818273      48.818273      48.818273    
    235000   1.0008426      0.018607322    1.5012493      16.856518      20.500068      0             -4.4389039      0              0              48.818061      48.818061      48.818061    
    236000   1.0001393     -0.029297898    1.5001944      16.85258       20.496169      0             -4.4412068      0              0              48.817904      48.817904      48.817904    
    237000   0.99654682     0.0064080485   1.4948057      16.857226      20.496696      0             -4.4369088      0              0              48.817714      48.817714      48.817714    
    238000   1.0030958      0.026501147    1.5046292      16.859859      20.500794      0             -4.4366336      0              0              48.817567      48.817567      48.817567    
    239000   1.0047107     -0.014343335    1.5070515      16.860657      20.500639      0             -4.4376303      0              0              48.817528      48.817528      48.817528    
    240000   1.0028414     -0.017239706    1.5042475      16.856516      20.498152      0             -4.4392892      0              0              48.81764       48.81764       48.81764     
    241000   0.99958995    -0.0095920667   1.4993704      16.855261      20.498828      0             -4.4394767      0              0              48.817839      48.817839      48.817839    
    242000   0.99695042     0.019496727    1.4954111      16.85746       20.49925       0             -4.4380607      0              0              48.818086      48.818086      48.818086    
    243000   1.0019169      0.051497262    1.5028607      16.853308      20.49758       0             -4.437197       0              0              48.818353      48.818353      48.818353    
    244000   1.0044346      0.039702358    1.5066373      16.857343      20.499266      0             -4.4353596      0              0              48.818649      48.818649      48.818649    
    245000   1.0061686      0.035541036    1.5092383      16.856172      20.499791      0             -4.4374288      0              0              48.819055      48.819055      48.819055    
    246000   0.99989255     0.0048666171   1.4998243      16.854219      20.497658      0             -4.4369309      0              0              48.819614      48.819614      48.819614    
    247000   0.99728295     0.028925523    1.4959099      16.855236      20.495907      0             -4.4350111      0              0              48.820201      48.820201      48.820201    
    248000   0.99833018    -0.016216729    1.4974807      16.856143      20.499487      0             -4.4389902      0              0              48.820777      48.820777      48.820777    
    249000   1.0034883      0.01810047     1.5052178      16.855108      20.498686      0             -4.4380932      0              0              48.821332      48.821332      48.821332    
    250000   1.0035686     -0.00073359015  1.5053383      16.855749      20.501986      0             -4.4409512      0              0              48.821931      48.821931      48.821931    
    251000   0.99658474     0.018437911    1.4948626      16.857787      20.500958      0             -4.4372755      0              0              48.822547      48.822547      48.822547    
    252000   0.9965224     -0.019987937    1.4947691      16.852711      20.497961      0             -4.4396889      0              0              48.823129      48.823129      48.823129    
    253000   0.99683326    -0.02067759     1.4952354      16.856772      20.497797      0             -4.4374929      0              0              48.823646      48.823646      48.823646    
    254000   0.99733645    -0.029453606    1.4959902      16.862454      20.501171      0             -4.4354957      0              0              48.824137      48.824137      48.824137    
    255000   0.99956512     0.0034787506   1.4993331      16.861649      20.499248      0             -4.4341719      0              0              48.824598      48.824598      48.824598    
    256000   0.99952525     0.014210653    1.4992733      16.859674      20.497165      0             -4.434055       0              0              48.825124      48.825124      48.825124    
    257000   0.99665016    -0.0066009891   1.4949607      16.854028      20.497852      0             -4.4398021      0              0              48.825645      48.825645      48.825645    
    258000   0.99506231    -0.0067285852   1.492579       16.855441      20.49877       0             -4.4370717      0              0              48.826057      48.826057      48.826057    
    259000   0.99844313     0.0041851573   1.4976502      16.855631      20.501233      0             -4.4412145      0              0              48.826295      48.826295      48.826295    
    260000   1.0003246     -0.029063982    1.5004724      16.85687       20.498975      0             -4.4385506      0              0              48.826448      48.826448      48.826448    
    261000   0.99767633     0.040011611    1.4965         16.863569      20.499745      0             -4.4330584      0              0              48.826592      48.826592      48.826592    
    262000   1.0011717     -0.033093511    1.5017429      16.860404      20.499049      0             -4.43539        0              0              48.826787      48.826787      48.826787    
    263000   1.0008737     -0.038433785    1.501296       16.860095      20.499029      0             -4.4337127      0              0              48.82699       48.82699       48.82699     
    264000   0.99691455     0.010701236    1.4953573      16.858719      20.495467      0             -4.4334716      0              0              48.827216      48.827216      48.827216    
    265000   0.99947806    -0.067608051    1.4992025      16.852224      20.496637      0             -4.4393634      0              0              48.827387      48.827387      48.827387    
    266000   0.99742874    -0.050332198    1.4961286      16.859974      20.497204      0             -4.4327697      0              0              48.827501      48.827501      48.827501    
    267000   1.0000996     -0.0071882006   1.5001348      16.863967      20.50112       0             -4.4341415      0              0              48.827612      48.827612      48.827612    
    268000   1.0032498     -0.0097928296   1.5048601      16.858783      20.49887       0             -4.4349456      0              0              48.827733      48.827733      48.827733    
    269000   1.0038079      0.023919989    1.5056972      16.853842      20.499031      0             -4.4374082      0              0              48.827969      48.827969      48.827969    
    270000   1.0005202     -0.015329501    1.5007657      16.8545        20.498296      0             -4.4352326      0              0              48.828236      48.828236      48.828236    
    271000   0.99634875     0.025974154    1.4945086      16.857519      20.500986      0             -4.4346307      0              0              48.828417      48.828417      48.828417    
    272000   0.99582597    -0.047915878    1.4937245      16.86043       20.500838      0             -4.4354343      0              0              48.828521      48.828521      48.828521    
    273000   1.00463        0.043637434    1.5069304      16.858091      20.498157      0             -4.4320084      0              0              48.828561      48.828561      48.828561    
    274000   1.0018769     -0.0058391918   1.5028008      16.862695      20.500346      0             -4.4316097      0              0              48.828663      48.828663      48.828663    
    275000   0.99927011     0.0042282997   1.4988906      16.861197      20.499123      0             -4.43136        0              0              48.828796      48.828796      48.828796    
    276000   0.99843126    -0.015501289    1.4976324      16.857657      20.498141      0             -4.4341522      0              0              48.828913      48.828913      48.828913    
    277000   0.9975444     -0.039198453    1.4963021      16.858585      20.500061      0             -4.433575       0              0              48.828934      48.828934      48.828934    
    278000   0.99841627    -0.041893345    1.4976099      16.862059      20.502775      0             -4.4346852      0              0              48.828911      48.828911      48.828911    
    279000   1.0016928     -0.0090813139   1.5025246      16.866212      20.502918      0             -4.4332514      0              0              48.828854      48.828854      48.828854    
    280000   1.0000015      0.056962341    1.4999877      16.865146      20.504409      0             -4.4347194      0              0              48.828814      48.828814      48.828814    
    281000   0.99589524     0.0050723486   1.4938284      16.864398      20.504747      0             -4.4353461      0              0              48.828799      48.828799      48.828799    
    282000   0.99786276     0.0015089921   1.4967796      16.860932      20.500944      0             -4.4343722      0              0              48.828794      48.828794      48.828794    
    283000   1.0023824      0.0074351667   1.503559       16.855564      20.499174      0             -4.4378399      0              0              48.828749      48.828749      48.828749    
    284000   1.0002682      0.028214625    1.5003878      16.861013      20.50008       0             -4.4331363      0              0              48.828678      48.828678      48.828678    
[...]
    906000   1.0009064      0.017955071    1.501345       16.835548      20.501499      0             -4.4488796      0              0              48.787766      48.787766      48.787766    
    907000   1.000259       0.030967613    1.500374       16.83545       20.500214      0             -4.4475267      0              0              48.787702      48.787702      48.787702    
    908000   1.0024371      0.041378087    1.5036411      16.824701      20.495882      0             -4.453096       0              0              48.787832      48.787832      48.787832    
    909000   0.99458542     0.032806085    1.4918637      16.83299       20.495652      0             -4.4470121      0              0              48.788077      48.788077      48.788077    
    910000   0.99777641     0.053485945    1.4966501      16.834052      20.497181      0             -4.4475217      0              0              48.788421      48.788421      48.788421    
    911000   1.0000472      0.036084063    1.5000563      16.833717      20.499307      0             -4.4502068      0              0              48.788936      48.788936      48.788936    
    912000   1.0013902      0.021035455    1.5020707      16.83424       20.499424      0             -4.4473031      0              0              48.789631      48.789631      48.789631    
    913000   1.0039117     -0.0091947275   1.5058529      16.832919      20.496478      0             -4.4466895      0              0              48.790541      48.790541      48.790541    
    914000   0.99841895     0.044364841    1.4976139      16.839057      20.499763      0             -4.4446872      0              0              48.791616      48.791616      48.791616    
    915000   0.99836151     0.0094248653   1.4975277      16.830693      20.49809       0             -4.4502863      0              0              48.792804      48.792804      48.792804    
    916000   0.99874707    -0.02319499     1.4981061      16.830486      20.492347      0             -4.4458297      0              0              48.794079      48.794079      48.794079    
    917000   0.99984271     0.033664643    1.4997495      16.836387      20.49797       0             -4.4465871      0              0              48.795458      48.795458      48.795458    
    918000   0.99788009     0.019639817    1.4968056      16.842696      20.500824      0             -4.4427849      0              0              48.797013      48.797013      48.797013    
    919000   0.9985074      0.0025724813   1.4977466      16.842364      20.498604      0             -4.4420176      0              0              48.798703      48.798703      48.798703    
    920000   0.99903882     0.0048593524   1.4985437      16.840877      20.49917       0             -4.445199       0              0              48.800476      48.800476      48.800476    
    921000   1.000754       0.0032359501   1.5011165      16.835742      20.497326      0             -4.4476544      0              0              48.802341      48.802341      48.802341    
    922000   0.99713865     0.039527148    1.4956935      16.839906      20.498273      0             -4.4430769      0              0              48.804256      48.804256      48.804256    
    923000   0.99650197     0.0092896588   1.4947385      16.847269      20.500472      0             -4.4387474      0              0              48.806249      48.806249      48.806249    
    924000   1.0004213      0.038823137    1.5006174      16.847935      20.504464      0             -4.4414204      0              0              48.808358      48.808358      48.808358    
    925000   0.99856312     0.010460406    1.4978302      16.851052      20.501844      0             -4.4370064      0              0              48.810621      48.810621      48.810621    
    926000   1.0007259     -0.0068462449   1.5010743      16.841994      20.498         0             -4.4399895      0              0              48.812994      48.812994      48.812994    
    927000   0.99784042    -0.061580205    1.4967461      16.839839      20.497483      0             -4.4457938      0              0              48.815392      48.815392      48.815392    
    928000   0.99524911     0.026731358    1.4928592      16.847204      20.497308      0             -4.4385906      0              0              48.817736      48.817736      48.817736    
    929000   0.99796591    -0.024751633    1.4969344      16.848185      20.501303      0             -4.4382434      0              0              48.82003       48.82003       48.82003     
    930000   0.99966741     0.015229255    1.4994866      16.850251      20.499748      0             -4.4367267      0              0              48.822245      48.822245      48.822245    
    931000   1.0039975     -0.0015563397   1.5059816      16.847613      20.498448      0             -4.4358244      0              0              48.824462      48.824462      48.824462    
    932000   0.99954407     0.0032226805   1.4993016      16.852293      20.49981       0             -4.4353933      0              0              48.826746      48.826746      48.826746    
    933000   0.99438891    -0.033692899    1.4915689      16.850171      20.500512      0             -4.4359749      0              0              48.829015      48.829015      48.829015    
    934000   0.99869513    -0.030617644    1.4980282      16.844641      20.497616      0             -4.4365803      0              0              48.831163      48.831163      48.831163    
    935000   0.99810641     0.0023417358   1.4971451      16.851026      20.499456      0             -4.4330984      0              0              48.83317       48.83317       48.83317     
    936000   1.0004886     -0.048676536    1.5007183      16.850408      20.499462      0             -4.4350414      0              0              48.83513       48.83513       48.83513     
    937000   1.0004241     -0.015492848    1.5006215      16.85102       20.496825      0             -4.4303043      0              0              48.837044      48.837044      48.837044    
    938000   0.99876662    -0.050946989    1.4981354      16.853297      20.500441      0             -4.4327542      0              0              48.838833      48.838833      48.838833    
    939000   1.0021978     -0.026618816    1.5032822      16.846912      20.496085      0             -4.433878       0              0              48.84042       48.84042       48.84042     
    940000   0.99659928    -0.073414278    1.4948844      16.84996       20.500684      0             -4.4351182      0              0              48.841865      48.841865      48.841865    
    941000   0.99436546    -0.067937277    1.4915337      16.850411      20.500145      0             -4.4332799      0              0              48.843083      48.843083      48.843083    
    942000   0.99682212    -0.041000719    1.4952187      16.853773      20.503667      0             -4.4308115      0              0              48.843994      48.843994      48.843994    
    943000   1.0023644     -0.086715638    1.5035321      16.851257      20.499585      0             -4.4314076      0              0              48.844733      48.844733      48.844733    
    944000   1.0019134     -0.041951391    1.5028556      16.850983      20.498655      0             -4.4308131      0              0              48.845309      48.845309      48.845309    
    945000   1.0006898     -0.035704913    1.5010202      16.849         20.499192      0             -4.433479       0              0              48.845759      48.845759      48.845759    
    946000   0.99794914    -0.031008728    1.4969092      16.845301      20.495177      0             -4.4323893      0              0              48.846017      48.846017      48.846017    
    947000   0.99619451    -0.030247986    1.4942773      16.844017      20.494285      0             -4.4336541      0              0              48.846082      48.846082      48.846082    
    948000   1.0018468     -0.070800813    1.5027557      16.846976      20.498638      0             -4.4370317      0              0              48.845925      48.845925      48.845925    
    949000   0.99846486     0.013951712    1.4976828      16.856844      20.496703      0             -4.4250727      0              0              48.845603      48.845603      48.845603    
    950000   1.0009266     -0.015422745    1.5013754      16.856847      20.501283      0             -4.4289967      0              0              48.845237      48.845237      48.845237    
    951000   1.0010617     -0.006270581    1.5015779      16.85534       20.500367      0             -4.4310146      0              0              48.844728      48.844728      48.844728    
    952000   0.998923      -0.017267966    1.49837        16.850935      20.495913      0             -4.4299902      0              0              48.84408       48.84408       48.84408     
    953000   0.99826372    -0.04939391     1.4973811      16.850005      20.495289      0             -4.4301503      0              0              48.843289      48.843289      48.843289    
    954000   0.9995522     -0.056890273    1.4993138      16.853992      20.500293      0             -4.4321656      0              0              48.842285      48.842285      48.842285    
    955000   1.002218      -0.040416463    1.5033125      16.855338      20.500378      0             -4.4319338      0              0              48.841186      48.841186      48.841186    
    956000   1.0016965     -0.049767524    1.5025301      16.854353      20.500545      0             -4.4338473      0              0              48.840031      48.840031      48.840031    
    957000   0.99970178    -0.044996584    1.4995381      16.852591      20.496148      0             -4.4294254      0              0              48.838777      48.838777      48.838777    
    958000   0.99892024     0.020549021    1.4983658      16.849461      20.496277      0             -4.4306133      0              0              48.837447      48.837447      48.837447    
    959000   1.0000686     -0.022176556    1.5000883      16.847241      20.496321      0             -4.4337398      0              0              48.836057      48.836057      48.836057    
    960000   1.0028713     -0.02352068     1.5042923      16.848094      20.498173      0             -4.4349365      0              0              48.834579      48.834579      48.834579    
    961000   1.0033419     -0.027730458    1.5049983      16.853687      20.499666      0             -4.4313125      0              0              48.833042      48.833042      48.833042    
    962000   0.99830012     0.02160292     1.4974357      16.859224      20.500592      0             -4.4275924      0              0              48.831501      48.831501      48.831501    
    963000   0.99638062    -0.053849374    1.4945564      16.852304      20.500186      0             -4.4343469      0              0              48.830033      48.830033      48.830033    
    964000   0.9971271     -0.0049323416   1.4956761      16.850055      20.501965      0             -4.4371576      0              0              48.828499      48.828499      48.828499    
    965000   1.0016098     -0.04227574     1.5024002      16.846494      20.498463      0             -4.4357256      0              0              48.826891      48.826891      48.826891    
    966000   1.0001552      0.017752611    1.5002183      16.849225      20.505211      0             -4.4378149      0              0              48.825243      48.825243      48.825243    
    967000   0.99791439    -0.042619588    1.4968571      16.845471      20.502845      0             -4.4395812      0              0              48.823553      48.823553      48.823553    
    968000   0.99549496    -0.02134307     1.493228       16.842457      20.498858      0             -4.4403286      0              0              48.82175       48.82175       48.82175     
    969000   0.99887296    -0.010630434    1.4982949      16.842415      20.497414      0             -4.439372       0              0              48.819867      48.819867      48.819867    
    970000   1.0010429      0.0041489341   1.5015498      16.844109      20.498851      0             -4.4393845      0              0              48.817941      48.817941      48.817941    
    971000   1.0036048     -0.00070983285  1.5053926      16.841656      20.49819       0             -4.4420562      0              0              48.816047      48.816047      48.816047    
    972000   1.0018984     -0.0048554006   1.502833       16.842753      20.498402      0             -4.4412776      0              0              48.814202      48.814202      48.814202    
    973000   0.99831023    -0.047262267    1.4974508      16.839144      20.501826      0             -4.4459711      0              0              48.812374      48.812374      48.812374    
    974000   0.99714046     0.0030842454   1.4956962      16.837197      20.496075      0             -4.4431959      0              0              48.810511      48.810511      48.810511    
    975000   0.9984819     -0.0031585991   1.4977083      16.839641      20.495123      0             -4.4401915      0              0              48.808652      48.808652      48.808652    
    976000   1.0024085      0.0095839018   1.5035981      16.838148      20.496597      0             -4.4439898      0              0              48.806857      48.806857      48.806857    
    977000   0.99745945    -0.012893304    1.4961747      16.847234      20.503242      0             -4.4412487      0              0              48.805148      48.805148      48.805148    
    978000   0.99955503     0.05009918     1.499318       16.843276      20.499161      0             -4.4420023      0              0              48.803483      48.803483      48.803483    
    979000   0.99767995    -0.0200804      1.4965054      16.840477      20.50025       0             -4.4450615      0              0              48.801935      48.801935      48.801935    
    980000   0.99665001     0.025016942    1.4949605      16.836155      20.497419      0             -4.4457321      0              0              48.800442      48.800442      48.800442    
    981000   0.99571041     0.025784638    1.4935511      16.841568      20.500005      0             -4.4434887      0              0              48.798997      48.798997      48.798997    
    982000   1.0013093      0.022963731    1.5019494      16.840721      20.496199      0             -4.4410443      0              0              48.797648      48.797648      48.797648    
    983000   1.0018806      0.062089108    1.5028063      16.84021       20.498173      0             -4.4444129      0              0              48.796426      48.796426      48.796426    
    984000   0.99935572     0.047107625    1.499019       16.841598      20.50075       0             -4.4452792      0              0              48.795421      48.795421      48.795421    
    985000   1.0016008      0.029738754    1.5023867      16.834047      20.499548      0             -4.4485306      0              0              48.79458       48.79458       48.79458     
    986000   0.99688768    -0.0070166968   1.495317       16.832803      20.495869      0             -4.4468019      0              0              48.793799      48.793799      48.793799    
    987000   0.99983343     0.032031298    1.4997356      16.829467      20.498627      0             -4.4530259      0              0              48.793023      48.793023      48.793023    
    988000   0.9989722      0.062316003    1.4984438      16.840406      20.501165      0             -4.4458952      0              0              48.79232       48.79232       48.79232     
    989000   0.99909921    -0.00053841986  1.4986343      16.840898      20.502524      0             -4.4455678      0              0              48.791788      48.791788      48.791788    
    990000   1.0021053     -0.050127772    1.5031433      16.83356       20.498938      0             -4.4501678      0              0              48.791405      48.791405      48.791405    
    991000   0.99617238    -0.0088138778   1.4942441      16.839051      20.50147       0             -4.4475017      0              0              48.791168      48.791168      48.791168    
    992000   0.99795675     0.036511841    1.4969206      16.834817      20.495653      0             -4.4456671      0              0              48.791044      48.791044      48.791044    
    993000   0.99940708    -0.0058125908   1.4990961      16.835691      20.495376      0             -4.4468913      0              0              48.791038      48.791038      48.791038    
    994000   1.0007678      0.04017333     1.5011372      16.840476      20.503609      0             -4.4482476      0              0              48.791144      48.791144      48.791144    
    995000   0.99858919     0.026116399    1.4978693      16.844131      20.505624      0             -4.4477824      0              0              48.791397      48.791397      48.791397    
    996000   1.0001376     -0.010876741    1.5001918      16.835766      20.498661      0             -4.4496572      0              0              48.791789      48.791789      48.791789    
    997000   0.99715909     0.056745625    1.4957241      16.833457      20.498829      0             -4.4517952      0              0              48.792285      48.792285      48.792285    
    998000   0.9964731     -0.0094625465   1.4946951      16.838176      20.497205      0             -4.4448607      0              0              48.792862      48.792862      48.792862    
    999000   1.0011586      0.047153535    1.5017234      16.838106      20.499994      0             -4.4466825      0              0              48.793514      48.793514      48.793514    
   1000000   0.99871163     0.044819028    1.4980529      16.841905      20.498738      0             -4.4415638      0              0              48.794277      48.794277      48.794277    
   1001000   0.99791148    -0.014948368    1.4968527      16.840515      20.500131      0             -4.444206       0              0              48.795169      48.795169      48.795169    
   1001390   0.99737176     0.019511444    1.4960431      16.839698      20.501133      0             -4.4469804      0              0              48.795536      48.795536      48.795536    
Loop time of 44907.8 on 1 procs for 1001390 steps with 103098 atoms

Performance: 1926.615 tau/day, 22.299 timesteps/s, 2.299 Matom-step/s
99.9% CPU use with 1 MPI tasks x no OpenMP threads

MPI task timing breakdown:
Section |  min time  |  avg time  |  max time  |%varavg| %total
---------------------------------------------------------------
Pair    | 33705      | 33705      | 33705      |   0.0 | 75.05
Bond    | 4602.9     | 4602.9     | 4602.9     |   0.0 | 10.25
Neigh   | 3687.4     | 3687.4     | 3687.4     |   0.0 |  8.21
Comm    | 272.92     | 272.92     | 272.92     |   0.0 |  0.61
Output  | 2.2811     | 2.2811     | 2.2811     |   0.0 |  0.01
Modify  | 2315       | 2315       | 2315       |   0.0 |  5.16
Other   |            | 322.1      |            |       |  0.72

Nlocal:         103098 ave      103098 max      103098 min
Histogram: 1 0 0 0 0 0 0 0 0 0
Nghost:          39733 ave       39733 max       39733 min
Histogram: 1 0 0 0 0 0 0 0 0 0
Neighs:    4.03755e+06 ave 4.03755e+06 max 4.03755e+06 min
Histogram: 1 0 0 0 0 0 0 0 0 0

Total # of neighbors = 4037548
Ave neighs/atom = 39.162234
Ave special neighs/atom = 1.980601
Neighbor list builds = 33186
Dangerous builds = 0
Total wall time: 19:15:32
