ITEM: TIMESTEP
0
ITEM: NUMBER OF ATOMS
5000
ITEM: BOX BOUNDS pp pp pp
-9.0258275300000008e+00 9.0258275300000008e+00
-9.0258275300000008e+00 9.0258275300000008e+00
-9.0258275300000008e+00 9.0258275300000008e+00
ITEM: ATOMS id mol type q xs ys zs ix iy iz
2605 53 1 0 0.248469 0.0618155 0.0119641 1 1 1
19 1 1 0 0.28569 0.00598131 0.063627 1 1 1
42 1 1 0 0.40523 0.0339455 0.0526197 1 1 1
2679 54 1 0 0.462671 0.0221737 0.00194289 1 1 1
4121 83 1 0 0.659996 0.000369632 0.0432798 0 1 1
4122 83 1 0 0.620006 0.0341726 0.0553452 0 1 1
4126 83 1 0 0.632608 0.0154375 0.0310926 0 1 1
4127 83 1 0 0.68056 0.0172711 0.0552732 0 1 1
796 16 1 0 0.107014 0.129017 0.0529964 1 1 1
2603 53 1 0 0.245588 0.068175 0.00198721 1 1 1
4837 97 1 0 0.264789 0.121311 0.0471742 1 1 1
4528 91 1 0 0.314529 0.0928154 0.0349537 1 1 1
4529 91 1 0 0.356337 0.116464 0.0590512 1 1 1
4850 97 1 0 0.351617 0.0945106 0.0420833 1 1 1
2653 54 1 0 0.464089 0.0880846 0.0101804 1 1 1
2652 54 1 0 0.481112 0.122442 0.0478279 1 1 1
2654 54 1 0 0.472576 0.129372 0.043507 1 1 1
3191 64 1 0 0.302907 0.198041 0.0392747 1 1 1
3198 64 1 0 0.317825 0.191222 0.0494676 1 1 1
4838 97 1 0 0.29447 0.152367 0.0148891 1 1 1
75 2 1 0 0.383149 0.179954 0.0101305 1 1 1
2655 54 1 0 0.500928 0.174575 0.0371474 1 1 1
4433 89 1 0 0.653119 0.155491 0.0648623 1 1 1
4434 89 1 0 0.690594 0.177871 0.0335245 1 1 1
311 7 1 0 0.123754 0.252856 0.0406762 1 1 1
312 7 1 0 0.100588 0.206489 0.0265002 1 1 1
317 7 1 0 0.0927324 0.263526 0.0165787 1 1 1
305 7 1 0 0.140839 0.264129 0.0651504 1 1 1
310 7 1 0 0.158826 0.248884 0.000159125 1 1 1
316 7 1 0 0.145608 0.260224 0.025564 1 1 1
318 7 1 0 0.134717 0.241411 0.0417841 1 1 1
320 7 1 0 0.139443 0.241179 0.0471465 1 1 1
3194 64 1 0 0.291733 0.253604 0.0208719 1 1 1
3199 64 1 0 0.296946 0.239794 0.0398729 1 1 1
4809 97 1 0 0.295102 0.255554 0.0581926 1 1 1
4830 97 1 0 0.319748 0.259077 0.013205 1 1 1
4831 97 1 0 0.289905 0.244364 0.0554006 1 1 1
73 2 1 0 0.376108 0.23021 0.0329317 1 1 1
3188 64 1 0 0.374668 0.23801 0.0056877 1 1 1
3189 64 1 0 0.344316 0.238813 0.0500216 1 1 1
3195 64 1 0 0.339469 0.230487 0.0122577 1 1 1
4807 97 1 0 0.333425 0.260091 0.0150442 1 1 1
4808 97 1 0 0.340859 0.227401 0.0570403 1 1 1
61 2 1 0 0.411662 0.227684 0.0483154 1 1 1
2663 54 1 0 0.422309 0.236824 0.0312532 1 1 1
3803 77 1 0 0.465064 0.244851 0.0599265 1 1 1
2656 54 1 0 0.473833 0.214677 0.0138088 1 1 1
2664 54 1 0 0.467163 0.22708 0.00331119 1 1 1
3168 64 1 0 0.472321 0.219391 0.0134155 1 1 1
3169 64 1 0 0.474786 0.265043 0.0416456 1 1 1
4435 89 1 0 0.664979 0.217663 0.00806422 1 1 1
4972 100 1 0 0.705244 0.246527 0.0547414 0 0 1
306 7 1 0 0.179921 0.274954 0.029896 1 1 1
315 7 1 0 0.134335 0.308535 0.00491215 1 1 1
740 15 1 0 0.266572 0.318307 0.00578188 1 1 1
4810 97 1 0 0.246879 0.270855 0.0400834 1 1 1
4814 97 1 0 0.260429 0.276189 0.0489469 1 1 1
4815 97 1 0 0.255238 0.328035 0.0620814 1 1 1
3196 64 1 0 0.314817 0.267326 0.0426261 1 1 1
3200 64 1 0 0.320673 0.283363 0.0192266 1 1 1
4817 97 1 0 0.279596 0.306962 0.0128117 1 1 1
64 2 1 0 0.334588 0.277386 0.0594999 1 1 1
1897 38 1 0 0.353667 0.275408 0.0409642 1 1 1
1898 38 1 0 0.367943 0.321853 0.063904 1 1 1
3181 64 1 0 0.380473 0.289462 0.0148392 1 1 1
4829 97 1 0 0.369311 0.279812 0.0125126 1 1 1
2662 54 1 0 0.441903 0.280383 0.00662945 1 1 1
3170 64 1 0 0.466471 0.316623 0.0290817 1 1 1
3178 64 1 0 0.400887 0.305538 0.00978151 1 1 1
3180 64 1 0 0.430984 0.301284 0.0288435 1 1 1
3802 77 1 0 0.441675 0.291318 0.0464707 1 1 1
4402 89 1 0 0.442584 0.314562 0.0538717 1 1 1
2723 55 1 0 0.53262 0.318706 0.0252649 1 1 1
3174 64 1 0 0.480381 0.296769 0.016274 1 1 1
4968 100 1 0 0.631373 0.318665 0.0666184 0 0 1
4969 100 1 0 0.669436 0.285964 0.0474013 0 0 1
4971 100 1 0 0.706042 0.286923 0.0193153 0 0 1
4973 100 1 0 0.705488 0.293138 0.0280014 0 0 1
4214 85 1 0 0.797934 0.321614 0.0362666 0 1 1
4211 85 1 0 0.92215 0.30617 0.0280901 0 1 1
4207 85 1 0 0.949421 0.328733 0.00923309 0 1 1
4209 85 1 0 0.937849 0.327608 0.0120639 0 1 1
4816 97 1 0 0.260789 0.357101 0.0172324 1 1 1
66 2 1 0 0.304763 0.366286 0.054963 1 1 1
99 2 1 0 0.350936 0.358265 0.0256028 1 1 1
1899 38 1 0 0.34328 0.350775 0.0259241 1 1 1
54 2 1 0 0.416271 0.359949 0.0447755 1 1 1
3176 64 1 0 0.462444 0.353484 0.00856833 1 1 1
3177 64 1 0 0.416836 0.349246 0.0366599 1 1 1
3179 64 1 0 0.401734 0.34102 0.0501268 1 1 1
3801 77 1 0 0.461668 0.340837 0.0524258 1 1 1
4406 89 1 0 0.519502 0.388722 0.037297 1 1 1
2722 55 1 0 0.564634 0.354276 0.000829424 1 1 1
2724 55 1 0 0.568689 0.357484 0.0343444 1 1 1
4408 89 1 0 0.540592 0.389841 0.0393744 1 1 1
2728 55 1 0 0.629376 0.373166 0.00446344 1 1 1
2736 55 1 0 0.61007 0.379199 0.0403272 1 1 1
2738 55 1 0 0.649185 0.39168 0.0382997 1 1 1
2740 55 1 0 0.648609 0.384412 0.0392525 1 1 1
2749 55 1 0 0.634079 0.366835 0.00329457 1 1 1
4410 89 1 0 0.619155 0.372059 0.0542483 1 1 1
2741 55 1 0 0.687597 0.356298 0.0632725 1 1 1
2742 55 1 0 0.672796 0.397081 0.0315745 1 1 1
2743 55 1 0 0.713285 0.382141 0.0635827 1 1 1
2744 55 1 0 0.682911 0.354487 0.0289432 1 1 1
2745 55 1 0 0.720226 0.38701 0.00803652 1 1 1
2750 55 1 0 0.671931 0.389387 0.0340508 1 1 1
4216 85 1 0 0.783381 0.340715 0.0165842 0 1 1
4217 85 1 0 0.834457 0.351551 0.00389839 0 1 1
4212 85 1 0 0.883455 0.333486 0.00271291 0 1 1
2963 60 1 0 0.170908 0.408665 0.00319486 1 1 1
2965 60 1 0 0.174005 0.440784 0.0119974 1 1 1
1672 34 1 0 0.317415 0.457982 0.0403216 1 0 1
1673 34 1 0 0.311156 0.422168 0.000757408 1 0 1
3839 77 1 0 0.297146 0.422785 0.0576996 1 1 1
2725 55 1 0 0.591479 0.404953 0.0236417 1 1 1
2730 55 1 0 0.547965 0.418902 0.0322725 1 1 1
2729 55 1 0 0.600697 0.414731 0.0228329 1 1 1
4898 98 1 0 0.700059 0.433834 0.0624193 0 0 1
4897 98 1 0 0.734577 0.458286 0.0292866 0 0 1
4219 85 1 0 0.848998 0.407679 0.00841876 0 1 1
4220 85 1 0 0.833005 0.409867 0.0596717 0 1 1
351 8 1 0 0.12946 0.50924 0.0399837 1 0 1
1674 34 1 0 0.32593 0.467238 0.0260127 1 0 1
1671 34 1 0 0.341031 0.495773 0.0102967 1 0 1
1666 34 1 0 0.425865 0.51709 0.0207168 1 0 1
1688 34 1 0 0.445586 0.52315 0.00583174 1 0 1
4900 98 1 0 0.626077 0.473803 0.0238966 0 0 1
4899 98 1 0 0.66845 0.476922 0.0567966 0 0 1
4959 100 1 0 0.719952 0.512802 0.0628182 0 0 1
4896 98 1 0 0.77736 0.485708 0.0118146 0 0 1
4894 98 1 0 0.828286 0.527543 0.047983 0 0 1
4895 98 1 0 0.824613 0.475465 0.0352529 0 0 1
4224 85 1 0 0.936802 0.492541 0.0557995 0 1 1
2756 56 1 0 0.0434848 0.555175 0.0292811 1 0 1
2873 58 1 0 0.00491769 0.576165 0.065167 1 0 1
3391 68 1 0 0.253615 0.581812 0.0274309 1 1 1
3692 74 1 0 0.227667 0.584471 0.059018 1 1 1
1695 34 1 0 0.322251 0.563972 0.0163848 1 0 1
3390 68 1 0 0.297151 0.59924 0.0536667 1 1 1
1691 34 1 0 0.379183 0.569334 0.00256888 1 0 1
1692 34 1 0 0.333419 0.594058 0.0160579 1 0 1
1693 34 1 0 0.358292 0.560194 0.0495618 1 0 1
1696 34 1 0 0.33507 0.578608 0.0664744 1 0 1
3388 68 1 0 0.361339 0.581164 0.00416984 1 1 1
3389 68 1 0 0.34343 0.571935 0.0539824 1 1 1
997 20 1 0 0.484705 0.538617 0.0501102 0 0 1
4954 100 1 0 0.67276 0.590817 0.00116734 0 0 1
4958 100 1 0 0.747783 0.5349 0.0225116 0 0 1
4893 98 1 0 0.832025 0.580741 0.0414074 0 0 1
4231 85 1 0 0.968954 0.572915 0.0608904 0 1 1
2875 58 1 0 0.01613 0.604024 0.0534285 1 0 1
2876 58 1 0 0.0343 0.646541 0.0260459 1 0 1
4232 85 1 0 0.00658513 0.611267 0.0603087 1 1 1
3700 74 1 0 0.0772379 0.65093 0.0130831 1 1 1
698 14 1 0 0.157602 0.61405 0.00431941 1 0 1
3693 74 1 0 0.187937 0.612707 0.0363996 1 1 1
3694 74 1 0 0.156832 0.65647 0.0342502 1 1 1
3618 73 1 0 0.261116 0.639774 0.0238689 1 1 1
1694 34 1 0 0.323215 0.600417 0.0558604 1 0 1
2274 46 1 0 0.323279 0.604622 0.0106679 0 0 1
2275 46 1 0 0.30614 0.639882 0.0474124 0 0 1
2277 46 1 0 0.304267 0.665481 0.00543842 0 0 1
2273 46 1 0 0.35742 0.645798 0.00551597 0 0 1
4952 100 1 0 0.590762 0.643328 0.0206725 0 0 1
4889 98 1 0 0.910832 0.65952 0.066635 0 0 1
4890 98 1 0 0.873262 0.631495 0.0403549 0 0 1
4892 98 1 0 0.870465 0.611558 0.0199468 0 0 1
4233 85 1 0 0.9975 0.608497 0.00742162 0 1 1
2231 45 1 0 0.0245502 0.688398 0.0287161 1 0 1
2232 45 1 0 0.0646684 0.701112 0.0621257 1 0 1
2310 47 1 0 0.033314 0.718357 0.0310039 1 0 1
3620 73 1 0 0.19284 0.679044 0.0471797 1 1 1
3617 73 1 0 0.219685 0.668696 0.00558799 1 1 1
3619 73 1 0 0.228249 0.678695 0.0067624 1 1 1
3624 73 1 0 0.208057 0.710161 0.0358345 1 1 1
4619 93 1 0 0.231733 0.721055 0.0165344 1 0 1
4620 93 1 0 0.250685 0.68462 0.0511905 1 0 1
2276 46 1 0 0.270348 0.679862 0.0445539 0 0 1
2278 46 1 0 0.309076 0.693838 0.0508304 0 0 1
261 6 1 0 0.346465 0.726838 0.0420666 1 0 1
252 6 1 0 0.446938 0.667059 0.033807 1 0 1
253 6 1 0 0.400843 0.690448 0.0191158 1 0 1
259 6 1 0 0.418675 0.699887 0.0217804 1 0 1
265 6 1 0 0.423633 0.711897 0.022002 1 0 1
267 6 1 0 0.438069 0.6917 0.05483 1 0 1
2259 46 1 0 0.461477 0.685074 0.0552067 0 0 1
2260 46 1 0 0.451822 0.687916 0.00241931 0 0 1
2285 46 1 0 0.434693 0.732666 0.0544644 0 0 1
266 6 1 0 0.471418 0.7304 0.0381723 1 0 1
2252 46 1 0 0.528435 0.729032 0.0419725 0 0 1
2251 46 1 0 0.546422 0.697799 0.00212016 0 0 1
3800 76 1 0 0.546735 0.697372 0.0385822 1 0 1
4951 100 1 0 0.627889 0.681861 0.0157477 0 0 1
2879 58 1 0 0.940818 0.685928 0.00686211 0 0 1
2234 45 1 0 0.0425874 0.783315 0.0269489 1 0 1
2311 47 1 0 0.0135651 0.763976 0.0514065 1 0 1
2312 47 1 0 0.0613225 0.788406 0.054553 1 0 1
2882 58 1 0 0.0214979 0.785026 0.00701722 1 0 1
2314 47 1 0 0.111883 0.778468 0.0499717 1 0 1
3627 73 1 0 0.105767 0.751553 0.0592839 1 1 1
3629 73 1 0 0.133554 0.764887 0.0253203 1 1 1
4618 93 1 0 0.213214 0.769438 0.00228081 1 0 1
1703 35 1 0 0.324999 0.74339 0.0227554 1 0 1
2279 46 1 0 0.303564 0.746565 0.0595997 0 0 1
2627 53 1 0 0.311449 0.778312 0.0318958 1 0 1
3645 73 1 0 0.318512 0.779257 0.0356739 1 1 1
4610 93 1 0 0.32465 0.773526 0.0282064 1 0 1
258 6 1 0 0.392444 0.745728 0.0118921 1 0 1
262 6 1 0 0.356099 0.765876 0.00641894 1 0 1
263 6 1 0 0.371289 0.788782 0.052592 1 0 1
264 6 1 0 0.386933 0.75093 0.017814 1 0 1
1704 35 1 0 0.378429 0.738183 0.0203623 1 0 1
2281 46 1 0 0.379546 0.799546 0.0641754 0 0 1
2626 53 1 0 0.353157 0.754448 0.00784817 1 0 1
2628 53 1 0 0.361212 0.783414 0.0122688 1 0 1
3648 73 1 0 0.377515 0.789306 0.0267938 1 1 1
2257 46 1 0 0.464258 0.749323 0.0262731 0 0 1
2283 46 1 0 0.443883 0.791652 0.055323 0 0 1
2284 46 1 0 0.406363 0.767721 0.0252095 0 0 1
2286 46 1 0 0.4266 0.784722 0.0438726 0 0 1
2630 53 1 0 0.433787 0.777299 0.029896 1 0 1
4607 93 1 0 0.421206 0.789508 0.00306745 1 0 1
271 6 1 0 0.524488 0.766435 0.0474789 1 0 1
975 20 1 0 0.493508 0.788744 0.0262731 0 0 1
984 20 1 0 0.528302 0.782866 0.032134 0 0 1
989 20 1 0 0.522242 0.776556 0.0628514 0 0 1
2287 46 1 0 0.472086 0.765854 0.0223621 0 0 1
2235 45 1 0 0.0103798 0.810099 0.0606079 1 0 1
2318 47 1 0 0.0476174 0.848489 0.0601758 1 0 1
2320 47 1 0 0.0474678 0.858565 0.0374576 1 0 1
2883 58 1 0 0.0516669 0.829477 0.00825811 1 0 1
2888 58 1 0 0.0591066 0.821112 0.00590929 1 0 1
2313 47 1 0 0.0962833 0.828729 0.0608239 1 0 1
2315 47 1 0 0.095901 0.818602 0.0180134 1 0 1
2316 47 1 0 0.0892756 0.850123 0.0610234 1 0 1
3628 73 1 0 0.0966434 0.800972 0.0402552 1 1 1
2201 45 1 0 0.141022 0.833094 0.0319457 1 0 1
1701 35 1 0 0.262008 0.815317 0.00146094 1 0 1
3642 73 1 0 0.207448 0.862058 0.0162131 1 1 1
3643 73 1 0 0.242231 0.823845 0.0309596 1 1 1
3644 73 1 0 0.281413 0.806517 0.0633888 1 1 1
3649 73 1 0 0.357788 0.826853 0.059788 1 1 1
977 20 1 0 0.456846 0.8136 0.0336851 0 0 1
2155 44 1 0 0.424389 0.800432 0.00476812 0 0 1
2282 46 1 0 0.406906 0.803152 0.0180688 0 0 1
2290 46 1 0 0.422279 0.825001 0.052243 0 0 1
2629 53 1 0 0.401169 0.818652 0.0192709 1 0 1
974 20 1 0 0.475847 0.835376 0.00625275 0 0 1
979 20 1 0 0.48275 0.815212 0.0323833 0 0 1
983 20 1 0 0.519151 0.831643 0.0115265 0 0 1
986 20 1 0 0.48404 0.847807 0.0382997 0 0 1
2188 44 1 0 0.531543 0.806642 0.0261678 0 0 1
2190 44 1 0 0.525992 0.801474 0.0295858 0 0 1
2191 44 1 0 0.490372 0.833022 0.00461855 0 0 1
2288 46 1 0 0.507717 0.804033 0.0350036 0 0 1
2289 46 1 0 0.473936 0.837886 0.0595055 0 0 1
985 20 1 0 0.533853 0.832651 0.0515782 0 0 1
2187 44 1 0 0.555984 0.850466 0.00695075 0 0 1
2884 58 1 0 0.0251264 0.873999 0.0224341 1 0 1
2203 45 1 0 0.125754 0.902539 0.0400391 1 0 1
2204 45 1 0 0.0816475 0.914948 0.0119697 1 0 1
2206 45 1 0 0.0885555 0.905592 0.0145512 1 0 1
2321 47 1 0 0.0851375 0.892069 0.0560654 1 0 1
2322 47 1 0 0.135504 0.90368 0.0413797 1 0 1
3637 73 1 0 0.223058 0.889163 0.0224618 1 1 1
3638 73 1 0 0.260446 0.927321 0.0282674 1 1 1
38 1 1 0 0.3829 0.929573 0.0614056 1 0 1
48 1 1 0 0.49336 0.926315 0.0423824 1 0 1
49 1 1 0 0.47534 0.888635 0.00857387 1 0 1
3078 62 1 0 0.694353 0.916039 0.0630398 0 0 1
3086 62 1 0 0.72886 0.920266 0.0395683 0 0 1
3088 62 1 0 0.69427 0.920405 0.0169111 0 0 1
3079 62 1 0 0.74554 0.905647 0.0504204 0 0 1
3085 62 1 0 0.777902 0.908611 0.0581815 0 0 1
3636 73 1 0 0.193526 0.933857 0.0182904 1 1 1
1847 37 1 0 0.324171 0.951083 0.00681225 0 0 1
3908 79 1 0 0.288742 0.936209 0.0544201 1 0 1
3909 79 1 0 0.267071 0.984343 0.0644746 1 0 1
39 1 1 0 0.360176 0.945638 0.015443 1 0 1
40 1 1 0 0.371488 0.99252 0.0391306 1 0 1
1846 37 1 0 0.345017 0.936121 0.0540212 0 0 1
41 1 1 0 0.418725 0.982958 0.0628902 1 0 1
50 1 1 0 0.48227 0.939428 0.0246777 1 0 1
2687 54 1 0 0.466731 0.970007 0.00241931 1 0 1
4125 83 1 0 0.598733 0.974527 0.0392525 0 0 1
3087 62 1 0 0.686576 0.939616 0.0664965 0 0 1
3083 62 1 0 0.761904 0.984554 0.0592784 0 0 1
3084 62 1 0 0.741518 0.94094 0.035408 0 0 1
4060 82 1 0 0.0216696 8.71095e-05 0.110891 1 1 1
758 16 1 0 0.212395 0.0325052 0.114132 1 1 1
781 16 1 0 0.247882 0.0479387 0.10174 1 1 1
17 1 1 0 0.311366 0.0183015 0.0673607 1 1 1
20 1 1 0 0.332245 0.00919985 0.0902672 1 1 1
780 16 1 0 0.285917 0.0122522 0.114658 1 1 1
4535 91 1 0 0.325958 0.0199468 0.106111 1 1 1
9 1 1 0 0.35642 0.0224119 0.117893 1 1 1
16 1 1 0 0.355318 0.0172822 0.0982609 1 1 1
21 1 1 0 0.36335 0.0520602 0.0993522 1 1 1
28 1 1 0 0.369776 0.0400502 0.0893476 1 1 1
30 1 1 0 0.364547 0.0355243 0.07767 1 1 1
776 16 1 0 0.34513 0.0648014 0.132457 1 1 1
778 16 1 0 0.351218 0.00916661 0.113667 1 1 1
4534 91 1 0 0.365993 0.0512015 0.123644 1 1 1
7 1 1 0 0.402892 0.0113991 0.13197 1 1 1
10 1 1 0 0.405867 0.0429641 0.122392 1 1 1
22 1 1 0 0.409917 0.0255917 0.0950646 1 1 1
27 1 1 0 0.409501 0.0257745 0.122602 1 1 1
31 1 1 0 0.407717 0.0281178 0.108786 1 1 1
43 1 1 0 0.456915 0.0301952 0.0668234 1 1 1
45 1 1 0 0.44229 0.00744932 0.0778085 1 1 1
44 1 1 0 0.477445 0.0219078 0.115788 1 1 1
4117 83 1 0 0.598739 0.0348485 0.12915 0 1 1
4123 83 1 0 0.573633 0.0271317 0.0815589 0 1 1
3069 62 1 0 0.644751 0.00471826 0.0811102 0 1 1
3070 62 1 0 0.649687 0.0489857 0.111168 0 1 1
4112 83 1 0 0.628725 0.000962375 0.124259 0 1 1
4118 83 1 0 0.625601 0.0151661 0.0869711 0 1 1
4119 83 1 0 0.644779 0.0524757 0.120553 0 1 1
4124 83 1 0 0.622798 0.00640232 0.0752049 0 1 1
3073 62 1 0 0.674355 0.0246832 0.100482 0 1 1
4120 83 1 0 0.677158 0.0242954 0.0882286 0 1 1
4128 83 1 0 0.730234 0.0193596 0.0756591 0 1 1
4129 83 1 0 0.683551 0.00167699 0.095541 0 1 1
4130 83 1 0 0.716966 0.0343111 0.0689672 0 1 1
4131 83 1 0 0.677574 0.0336907 0.105512 0 1 1
511 11 1 0 0.90855 0.0616715 0.103391 0 1 1
795 16 1 0 0.0641034 0.104255 0.0737978 1 1 1
793 16 1 0 0.132441 0.132086 0.0717149 1 1 1
794 16 1 0 0.106482 0.100549 0.106626 1 1 1
797 16 1 0 0.103817 0.0924665 0.0922559 1 1 1
2949 59 1 0 0.113617 0.0809772 0.103823 1 1 1
2950 59 1 0 0.0830047 0.124569 0.0967375 1 1 1
756 16 1 0 0.151065 0.11965 0.102826 1 1 1
757 16 1 0 0.184458 0.0782628 0.110548 1 1 1
760 16 1 0 0.17714 0.079836 0.128064 1 1 1
784 16 1 0 0.199842 0.117556 0.102953 1 1 1
2948 59 1 0 0.143359 0.119301 0.12694 1 1 1
782 16 1 0 0.233966 0.0934968 0.126602 1 1 1
783 16 1 0 0.213896 0.0697871 0.082761 1 1 1
29 1 1 0 0.323326 0.0669452 0.0918515 1 1 1
3511 71 1 0 0.274012 0.111539 0.0768446 1 1 1
4530 91 1 0 0.312263 0.130613 0.0863396 1 1 1
4836 97 1 0 0.288543 0.120276 0.0953582 1 1 1
3071 62 1 0 0.64181 0.0867938 0.0738089 0 1 1
3072 62 1 0 0.667026 0.0743628 0.1196 0 1 1
788 16 1 0 0.186131 0.17462 0.130419 1 1 1
789 16 1 0 0.183677 0.14224 0.0876026 1 1 1
792 16 1 0 0.182912 0.149043 0.0789275 1 1 1
2946 59 1 0 0.192601 0.178558 0.130269 1 1 1
2947 59 1 0 0.18586 0.13577 0.098477 1 1 1
786 16 1 0 0.229878 0.145304 0.0886275 1 1 1
791 16 1 0 0.217264 0.164255 0.117351 1 1 1
1887 38 1 0 0.255698 0.152633 0.119046 1 1 1
2945 59 1 0 0.228199 0.160837 0.0941339 1 1 1
3513 71 1 0 0.231495 0.15943 0.115345 1 1 1
3510 71 1 0 0.299866 0.142888 0.111999 1 1 1
3512 71 1 0 0.280543 0.162183 0.0935744 1 1 1
4835 97 1 0 0.311505 0.166714 0.0810825 1 1 1
2651 54 1 0 0.468787 0.133576 0.0989312 1 1 1
4430 89 1 0 0.654293 0.133931 0.111739 1 1 1
4432 89 1 0 0.626345 0.164992 0.11047 1 1 1
4429 89 1 0 0.690921 0.169252 0.128995 1 1 1
304 7 1 0 0.0964439 0.245954 0.0893587 1 1 1
319 7 1 0 0.10523 0.207315 0.0710224 1 1 1
321 7 1 0 0.129676 0.203769 0.0844616 1 1 1
322 7 1 0 0.120879 0.256357 0.0777808 1 1 1
325 7 1 0 0.132247 0.212073 0.11411 1 1 1
326 7 1 0 0.0971918 0.246297 0.0920288 1 1 1
323 7 1 0 0.164083 0.224521 0.0750442 1 1 1
324 7 1 0 0.153076 0.261576 0.11237 1 1 1
2943 59 1 0 0.199808 0.24119 0.131676 1 1 1
2944 59 1 0 0.239129 0.206251 0.120697 1 1 1
4812 97 1 0 0.23637 0.24792 0.10595 1 1 1
70 2 1 0 0.285729 0.264379 0.123777 1 1 1
3190 64 1 0 0.302148 0.230321 0.0822292 1 1 1
3197 64 1 0 0.330517 0.232963 0.0808387 1 1 1
3518 71 1 0 0.291246 0.225773 0.122292 1 1 1
3520 71 1 0 0.31777 0.202739 0.105368 1 1 1
4813 97 1 0 0.284033 0.241095 0.0820962 1 1 1
4832 97 1 0 0.329974 0.222288 0.0835919 1 1 1
4833 97 1 0 0.297295 0.238298 0.123134 1 1 1
71 2 1 0 0.337613 0.25664 0.112121 1 1 1
72 2 1 0 0.375349 0.264124 0.0746066 1 1 1
4834 97 1 0 0.337209 0.2086 0.10282 1 1 1
60 2 1 0 0.40482 0.229523 0.101579 1 1 1
3317 67 1 0 0.50929 0.232648 0.121134 0 1 1
3319 67 1 0 0.521821 0.242109 0.105817 0 1 1
3320 67 1 0 0.556144 0.20737 0.128225 0 1 1
4427 89 1 0 0.701375 0.258457 0.0789608 1 1 1
4428 89 1 0 0.706909 0.207359 0.0946435 1 1 1
327 7 1 0 0.0705737 0.282144 0.121926 1 1 1
68 2 1 0 0.228099 0.326018 0.111002 1 1 1
1746 35 1 0 0.258379 0.317327 0.124308 1 1 1
1747 35 1 0 0.222133 0.278089 0.130114 1 1 1
1891 38 1 0 0.24017 0.299367 0.12776 1 1 1
4811 97 1 0 0.21574 0.289911 0.0795147 1 1 1
65 2 1 0 0.32773 0.325791 0.0817971 1 1 1
1894 38 1 0 0.285967 0.32342 0.0929595 1 1 1
1895 38 1 0 0.323448 0.315416 0.130624 1 1 1
51 2 1 0 0.399873 0.331204 0.0774651 1 1 1
52 2 1 0 0.371704 0.301445 0.112226 1 1 1
55 2 1 0 0.38239 0.327664 0.071172 1 1 1
58 2 1 0 0.392212 0.281945 0.130352 1 1 1
63 2 1 0 0.369289 0.317116 0.0697317 1 1 1
1896 38 1 0 0.335569 0.309172 0.078645 1 1 1
62 2 1 0 0.40492 0.276909 0.0687789 1 1 1
3804 77 1 0 0.448218 0.289119 0.0853092 1 1 1
3318 67 1 0 0.476966 0.271569 0.103042 0 1 1
4404 89 1 0 0.497565 0.314385 0.0709781 1 1 1
4412 89 1 0 0.633253 0.320673 0.102576 1 1 1
4425 89 1 0 0.715872 0.275153 0.131305 1 1 1
4970 100 1 0 0.716407 0.273406 0.0702801 0 0 1
4424 89 1 0 0.739571 0.315144 0.104355 1 1 1
4426 89 1 0 0.751957 0.27137 0.0916743 1 1 1
384 8 1 0 0.109667 0.372145 0.110764 1 0 1
1893 38 1 0 0.251466 0.34251 0.129466 1 1 1
67 2 1 0 0.275951 0.335912 0.0886496 1 1 1
53 2 1 0 0.377554 0.341945 0.0773986 1 1 1
56 2 1 0 0.375981 0.37233 0.100344 1 1 1
57 2 1 0 0.398322 0.335297 0.132236 1 1 1
1900 38 1 0 0.370868 0.367837 0.0687623 1 1 1
4401 89 1 0 0.438717 0.340543 0.100754 1 1 1
4403 89 1 0 0.464405 0.355445 0.0810714 1 1 1
2731 55 1 0 0.580051 0.394516 0.0678094 1 1 1
2733 55 1 0 0.589318 0.373576 0.130441 1 1 1
2735 55 1 0 0.599838 0.379127 0.0930758 1 1 1
4405 89 1 0 0.533916 0.353711 0.0754265 1 1 1
4409 89 1 0 0.574372 0.38516 0.0808996 1 1 1
4967 100 1 0 0.593825 0.351892 0.0859463 0 0 1
856 18 1 0 0.642181 0.398355 0.115101 0 1 1
857 18 1 0 0.659764 0.368857 0.0737646 0 1 1
864 18 1 0 0.661664 0.373571 0.128319 0 1 1
4411 89 1 0 0.665328 0.351141 0.072075 1 1 1
4414 89 1 0 0.614452 0.350498 0.130108 1 1 1
4966 100 1 0 0.605121 0.399666 0.107795 0 0 1
858 18 1 0 0.698464 0.373504 0.110753 0 1 1
4963 100 1 0 0.679712 0.366771 0.129383 0 0 1
4423 89 1 0 0.740274 0.365378 0.0852815 1 1 1
383 8 1 0 0.120647 0.422772 0.12504 1 0 1
3838 77 1 0 0.254285 0.451697 0.0723686 1 1 1
3840 77 1 0 0.261171 0.439875 0.0937738 1 1 1
4634 93 1 0 0.231828 0.423636 0.127111 1 0 1
3836 77 1 0 0.313327 0.443221 0.107872 1 1 1
3837 77 1 0 0.283241 0.407357 0.0814868 1 1 1
3849 77 1 0 0.337995 0.456356 0.102316 1 1 1
1095 22 1 0 0.553009 0.427871 0.100089 0 1 1
2732 55 1 0 0.574771 0.422425 0.113423 1 1 1
2734 55 1 0 0.622933 0.415212 0.125511 1 1 1
2737 55 1 0 0.621781 0.416232 0.0774595 1 1 1
4965 100 1 0 0.634099 0.437474 0.132657 0 0 1
4961 100 1 0 0.720772 0.458663 0.098549 0 0 1
4962 100 1 0 0.702126 0.408579 0.104139 0 0 1
4009 81 1 0 0.795812 0.436224 0.127976 0 1 1
4221 85 1 0 0.83916 0.45553 0.0873201 0 1 1
4223 85 1 0 0.915984 0.457724 0.0910372 0 1 1
352 8 1 0 0.132718 0.473166 0.0796698 1 0 1
353 8 1 0 0.156095 0.512647 0.107634 1 0 1
354 8 1 0 0.19947 0.488577 0.0869766 1 0 1
4632 93 1 0 0.184807 0.470668 0.125799 1 0 1
3689 74 1 0 0.260185 0.484131 0.110897 1 1 1
3690 74 1 0 0.229119 0.52318 0.130834 1 1 1
3841 77 1 0 0.281635 0.47621 0.127665 1 1 1
3845 77 1 0 0.299251 0.52882 0.123444 1 1 1
3848 77 1 0 0.310541 0.499194 0.119594 1 1 1
998 20 1 0 0.46079 0.499086 0.0775371 0 0 1
1000 20 1 0 0.462851 0.484234 0.113927 0 0 1
999 20 1 0 0.493452 0.528108 0.108814 0 0 1
1096 22 1 0 0.56985 0.468626 0.130795 0 1 1
4960 100 1 0 0.762945 0.483608 0.0764901 0 0 1
4222 85 1 0 0.875484 0.47144 0.123583 0 1 1
4225 85 1 0 0.966855 0.510063 0.0967541 0 1 1
2874 58 1 0 0.0433352 0.593426 0.0985379 1 0 1
355 8 1 0 0.191078 0.53336 0.115462 1 0 1
3691 74 1 0 0.241882 0.570567 0.108941 1 1 1
4628 93 1 0 0.314269 0.597913 0.130856 1 0 1
4629 93 1 0 0.279796 0.570182 0.10036 1 0 1
1698 34 1 0 0.366824 0.589056 0.129865 1 0 1
995 20 1 0 0.49015 0.586441 0.0760081 0 0 1
996 20 1 0 0.483226 0.540955 0.103773 0 0 1
4226 85 1 0 0.923828 0.542037 0.093026 0 1 1
4229 85 1 0 0.922942 0.573652 0.112575 0 1 1
2871 58 1 0 0.948308 0.585776 0.111423 0 0 1
2872 58 1 0 0.978422 0.543237 0.0983496 0 0 1
4227 85 1 0 0.960944 0.572794 0.0692719 0 1 1
4228 85 1 0 0.971757 0.551743 0.117517 0 1 1
3621 73 1 0 0.216306 0.661395 0.0921839 1 1 1
4622 93 1 0 0.284776 0.641716 0.120541 1 0 1
1697 34 1 0 0.381177 0.602711 0.0799136 1 0 1
4627 93 1 0 0.339269 0.632514 0.0982166 1 0 1
994 20 1 0 0.458951 0.629562 0.0833648 0 0 1
993 20 1 0 0.49759 0.666522 0.0886829 0 0 1
493 10 1 0 0.861657 0.644031 0.116403 0 0 1
496 10 1 0 0.831116 0.651133 0.123649 0 0 1
498 10 1 0 0.801684 0.6569 0.132845 0 0 1
2368 48 1 0 0.808603 0.662334 0.102449 0 0 1
491 10 1 0 0.931728 0.625169 0.126015 0 0 1
492 10 1 0 0.891061 0.602473 0.0992082 0 0 1
2869 58 1 0 0.87206 0.651598 0.122165 0 0 1
2870 58 1 0 0.917884 0.629567 0.104781 0 0 1
4885 98 1 0 0.882497 0.663974 0.117905 0 0 1
4886 98 1 0 0.929656 0.651415 0.0954135 0 0 1
4888 98 1 0 0.907481 0.653465 0.119921 0 0 1
4230 85 1 0 0.945793 0.614391 0.0860072 0 1 1
2307 47 1 0 0.0618765 0.668982 0.106277 1 0 1
2308 47 1 0 0.0153212 0.686886 0.126269 1 0 1
2309 47 1 0 0.00766536 0.701732 0.0751938 1 0 1
2241 45 1 0 0.123167 0.713327 0.128352 1 0 1
2244 45 1 0 0.185267 0.692198 0.0954911 1 0 1
3622 73 1 0 0.194967 0.7098 0.0827333 1 1 1
4621 93 1 0 0.267813 0.689179 0.101917 1 0 1
268 6 1 0 0.450472 0.730666 0.0896855 1 0 1
269 6 1 0 0.48124 0.689312 0.0745069 1 0 1
992 20 1 0 0.497169 0.716678 0.0694049 0 0 1
2253 46 1 0 0.495435 0.718933 0.0831598 0 0 1
2258 46 1 0 0.476983 0.7323 0.0756259 0 0 1
3799 76 1 0 0.522283 0.684598 0.0846943 1 0 1
3058 62 1 0 0.620421 0.700181 0.115822 0 0 1
3059 62 1 0 0.646507 0.708635 0.0696098 0 0 1
494 10 1 0 0.828773 0.682665 0.0986986 0 0 1
495 10 1 0 0.875351 0.681584 0.125466 0 0 1
2233 45 1 0 0.0490854 0.751921 0.0700696 1 0 1
2236 45 1 0 0.0344496 0.788926 0.103729 1 0 1
2238 45 1 0 0.108615 0.781609 0.0744127 1 0 1
2239 45 1 0 0.134075 0.755046 0.113573 1 0 1
3625 73 1 0 0.176492 0.736961 0.0700807 1 1 1
3626 73 1 0 0.140252 0.764876 0.0982776 1 1 1
2245 45 1 0 0.2145 0.735447 0.108227 1 0 1
2246 45 1 0 0.265786 0.742122 0.122796 1 0 1
3623 73 1 0 0.234232 0.743687 0.0686792 1 1 1
1705 35 1 0 0.357672 0.745828 0.0693328 1 0 1
2280 46 1 0 0.346729 0.763488 0.0867661 0 0 1
991 20 1 0 0.465815 0.749479 0.0981889 0 0 1
1706 35 1 0 0.40595 0.750271 0.0924997 1 0 1
2291 46 1 0 0.403244 0.791718 0.0898905 0 0 1
270 6 1 0 0.489461 0.742111 0.0801684 1 0 1
272 6 1 0 0.487993 0.795114 0.0745512 1 0 1
978 20 1 0 0.473764 0.785603 0.0763183 0 0 1
990 20 1 0 0.517012 0.733546 0.094638 0 0 1
2255 46 1 0 0.489513 0.782135 0.120913 0 0 1
2256 46 1 0 0.466984 0.776689 0.072435 0 0 1
3060 62 1 0 0.659913 0.760597 0.0723907 0 0 1
3061 62 1 0 0.622687 0.773465 0.108941 0 0 1
2237 45 1 0 0.0805229 0.816575 0.104006 1 0 1
2317 47 1 0 0.0689617 0.816796 0.0979618 1 0 1
3921 79 1 0 0.103313 0.845398 0.132695 1 0 1
2202 45 1 0 0.141681 0.86508 0.0751162 1 0 1
2249 45 1 0 0.215569 0.864626 0.112127 1 0 1
3917 79 1 0 0.200268 0.813932 0.132673 1 0 1
3650 73 1 0 0.388351 0.826937 0.103983 1 1 1
273 6 1 0 0.455724 0.818796 0.110398 1 0 1
274 6 1 0 0.404266 0.833044 0.104343 1 0 1
987 20 1 0 0.453306 0.839769 0.0816364 0 0 1
988 20 1 0 0.496316 0.810614 0.095336 0 0 1
3062 62 1 0 0.645377 0.818553 0.127372 0 0 1
3065 62 1 0 0.662101 0.843065 0.0996403 0 0 1
3734 75 1 0 0.803451 0.849215 0.131222 0 0 1
474 10 1 0 0.86816 0.815013 0.127217 0 0 1
478 10 1 0 0.954634 0.833582 0.125162 0 0 1
2319 47 1 0 0.0380005 0.90049 0.0697151 1 0 1
2323 47 1 0 0.117195 0.925246 0.0870597 1 0 1
3948 79 1 0 0.145575 0.90917 0.133122 1 0 1
1716 35 1 0 0.321753 0.904052 0.0962944 1 0 1
1717 35 1 0 0.274572 0.906262 0.0706734 1 0 1
1719 35 1 0 0.2706 0.920294 0.122713 1 0 1
1840 37 1 0 0.297249 0.873511 0.115207 0 0 1
3905 79 1 0 0.315593 0.918361 0.119611 1 0 1
3907 79 1 0 0.284294 0.916477 0.104205 1 0 1
3911 79 1 0 0.302602 0.905547 0.116675 1 0 1
36 1 1 0 0.351218 0.91887 0.126873 1 0 1
37 1 1 0 0.391652 0.894523 0.101186 1 0 1
279 6 1 0 0.35406 0.923064 0.103773 1 0 1
1714 35 1 0 0.391614 0.878436 0.11231 1 0 1
1838 37 1 0 0.366073 0.923424 0.109379 0 0 1
1841 37 1 0 0.33607 0.899221 0.0883893 0 0 1
1843 37 1 0 0.360024 0.916915 0.122973 0 0 1
275 6 1 0 0.439725 0.871179 0.091076 1 0 1
276 6 1 0 0.408227 0.899609 0.124048 1 0 1
452 10 1 0 0.731896 0.916909 0.125433 0 0 1
456 10 1 0 0.724428 0.917862 0.109584 0 0 1
3066 62 1 0 0.668561 0.889964 0.0742188 0 0 1
3080 62 1 0 0.728965 0.883045 0.0962667 0 0 1
3081 62 1 0 0.687966 0.916682 0.0875971 0 0 1
453 10 1 0 0.752919 0.928288 0.0773099 0 0 1
4064 82 1 0 0.0515062 0.990033 0.131144 1 0 1
2324 47 1 0 0.0762906 0.936575 0.120021 1 0 1
2328 47 1 0 0.124912 0.961797 0.131881 1 0 1
3945 79 1 0 0.125112 0.937079 0.124203 1 0 1
3946 79 1 0 0.122464 0.951122 0.0724018 1 0 1
3949 79 1 0 0.131538 0.947904 0.098621 1 0 1
4062 82 1 0 0.0996292 0.977762 0.118403 1 0 1
3947 79 1 0 0.16954 0.938614 0.0950922 1 0 1
1721 35 1 0 0.229268 0.965326 0.131 1 0 1
18 1 1 0 0.307167 0.981695 0.106482 1 0 1
779 16 1 0 0.31674 0.982205 0.0824951 1 0 1
1718 35 1 0 0.275242 0.958096 0.0848106 1 0 1
3910 79 1 0 0.268484 0.936636 0.0891648 1 0 1
11 1 1 0 0.396151 0.99206 0.108188 1 0 1
14 1 1 0 0.37541 0.98395 0.120857 1 0 1
23 1 1 0 0.397486 0.986559 0.129843 1 0 1
35 1 1 0 0.392533 0.951443 0.115921 1 0 1
278 6 1 0 0.399967 0.94889 0.0931478 1 0 1
1836 37 1 0 0.391666 0.981607 0.111972 0 0 1
1842 37 1 0 0.349803 0.950845 0.0825782 0 0 1
1844 37 1 0 0.397865 0.954878 0.119262 0 0 1
1845 37 1 0 0.365054 0.976832 0.0828108 0 0 1
3902 79 1 0 0.38978 0.941162 0.130662 1 0 1
3904 79 1 0 0.355495 0.95423 0.122536 1 0 1
32 1 1 0 0.434407 0.981529 0.106615 1 0 1
46 1 1 0 0.416226 0.964888 0.0977291 1 0 1
47 1 1 0 0.463086 0.959371 0.072014 1 0 1
1834 37 1 0 0.40936 0.969259 0.129732 0 0 1
1835 37 1 0 0.437075 0.97486 0.0840406 0 0 1
1837 37 1 0 0.417105 0.936243 0.098477 0 0 1
4102 83 1 0 0.569301 0.989844 0.117539 0 0 1
3067 62 1 0 0.659404 0.941001 0.0883117 0 0 1
3077 62 1 0 0.659116 0.935207 0.0987983 0 0 1
4101 83 1 0 0.6065 0.951859 0.109728 0 0 1
3068 62 1 0 0.689562 0.983402 0.101734 0 0 1
3082 62 1 0 0.732311 0.946735 0.083387 0 0 1
451 10 1 0 0.772983 0.948014 0.110199 0 0 1
454 10 1 0 0.733751 0.956019 0.119151 0 0 1
455 10 1 0 0.764779 0.936924 0.0796532 0 0 1
3750 75 1 0 0.826208 0.945167 0.10657 0 0 1
3936 79 1 0 0.0627628 0.064469 0.186153 1 1 1
4057 82 1 0 0.0139584 0.0379119 0.170415 1 1 1
4061 82 1 0 0.0615662 0.00294003 0.146772 1 1 1
800 16 1 0 0.118697 0.0587576 0.181611 1 1 1
1728 35 1 0 0.129859 0.0536611 0.193538 1 1 1
3935 79 1 0 0.0988592 0.0250045 0.191372 1 1 1
3937 79 1 0 0.0973413 0.0459056 0.149447 1 1 1
4063 82 1 0 0.0907824 0.000463806 0.166299 1 1 1
759 16 1 0 0.196357 0.0447423 0.163934 1 1 1
1723 35 1 0 0.171866 0.01613 0.181594 1 1 1
1724 35 1 0 0.134945 0.0392303 0.150123 1 1 1
3940 79 1 0 0.182619 0.0223565 0.186857 1 1 1
771 16 1 0 0.263237 0.0115487 0.196086 1 1 1
1875 38 1 0 0.265631 0.0110501 0.199482 1 1 1
772 16 1 0 0.314551 0.0109448 0.180148 1 1 1
777 16 1 0 0.310928 0.0253978 0.145298 1 1 1
1876 38 1 0 0.310441 0.0266941 0.174282 1 1 1
8 1 1 0 0.376584 0.0488804 0.160089 1 1 1
12 1 1 0 0.394278 0.038488 0.135177 1 1 1
13 1 1 0 0.344471 0.0207722 0.144827 1 1 1
15 1 1 0 0.351418 0.020811 0.151735 1 1 1
775 16 1 0 0.356027 0.0403715 0.179057 1 1 1
1828 37 1 0 0.379812 0.0534396 0.188552 0 1 1
1833 37 1 0 0.392608 0.00239715 0.16857 0 1 1
4536 91 1 0 0.370164 0.0267384 0.135886 1 1 1
4538 91 1 0 0.363993 0.0266055 0.193255 1 1 1
6 1 1 0 0.433017 0.0470579 0.158582 1 1 1
25 1 1 0 0.460898 0.00413106 0.190064 1 1 1
26 1 1 0 0.445365 0.0443822 0.158023 1 1 1
421 9 1 0 0.414121 0.0234645 0.192252 1 1 1
1832 37 1 0 0.42486 0.0323556 0.199393 0 1 1
4150 83 1 0 0.523123 0.0220186 0.144584 0 1 1
4115 83 1 0 0.594484 0.0246112 0.160842 0 1 1
4147 83 1 0 0.594529 0.0188056 0.19444 0 1 1
4148 83 1 0 0.56477 0.0414794 0.155868 0 1 1